Created by Ryther's code on 2024-12-05 23:06:37.279399

    424 atoms
    512 bonds
    912 angles
    960 dihedrals
    192 impropers

    5 atom types
    6 bond types
    9 angle types
    3 dihedral types
    2 improper types

0.00000000 25.832 xlo xhi
0.00000000 25.832 ylo yhi
0.00000000 25.832 zlo zhi
0.0 0.0 0.0 xy xz yz 

Masses 

    1    12.0107
    2    1.00794
    3    15.9994
    4    15.9994
    5      65.38

Pair Coeffs

    1       0.10500      3.43085 # C_R C_R
    2       0.04400      2.57113 # H_ H_
    3       0.06000      3.11815 # O_2_M O_2_M
    4       0.06000      3.11815 # O_3_f O_3_f
    5       0.12400      2.46155 # Zn3f2 Zn3f2

Bond Coeffs

    1     122.16486      2.01487 # O_2_M Zn3f2 bond order=0.5
    2     122.15424      2.01487 # O_3_f Zn3f2 bond order=0.5
    3     357.44038      1.08142 # C_R H_ bond order=1.0
    4     714.55744      1.26901 # C_R O_2_M bond order=1.5
    5     391.66951      1.45800 # C_R C_R bond order=1.0
    6     462.65505      1.37926 # C_R C_R bond order=1.5

Angle Coeffs

    1  fourier                131.49574      0.34375      0.37500      0.28125 # O_2_M Zn3f2 O_3_f
    2  fourier                131.50718      0.34375      0.37500      0.28125 # O_2_M Zn3f2 O_2_M
    3  cosine/periodic        206.77843           -1            3 # O_2_M C_R O_2_M
    4  cosine/periodic        137.71425           -1            3 # C_R C_R O_2_M
    5  cosine/periodic        102.18328           -1            3 # C_R C_R C_R
    6  cosine/periodic        111.29751           -1            3 # C_R C_R C_R
    7  cosine/periodic         57.28902           -1            3 # C_R C_R H_
    8  fourier                 42.55738      0.34375      0.37500      0.28125 # Zn3f2 O_3_f Zn3f2
    9  cosine/periodic         42.21907           -1            3 # C_R O_2_M Zn3f2

Dihedral Coeffs

    1       6.73711           -1            2 # X C_R O_2_M X bond order=1.5
    2       1.25000           -1            2 # X C_R C_R X bond order=1.0
    3       3.36856           -1            2 # X C_R C_R X bond order=1.5

Improper Coeffs

    1      16.66667      1.00000     -1.00000      0.00000            1 # C_R X X X O_2 present=True
    2       2.00000      1.00000     -1.00000      0.00000            1 # C_R X X X O_2 present=False

Atoms

    1 1     5      0.00000      7.57911      5.33689      5.33689
    2 1     5      0.00000     18.25289     20.49511      5.33689
    3 1     5      0.00000     18.25289      5.33689     20.49511
    4 1     5      0.00000      7.57911     20.49511     20.49511
    5 1     5      0.00000      5.33689      7.57911      5.33689
    6 1     5      0.00000      5.33689     18.25289     20.49511
    7 1     5      0.00000     20.49511     18.25289      5.33689
    8 1     5      0.00000     20.49511      7.57911     20.49511
    9 1     5      0.00000      5.33689      5.33689      7.57911
   10 1     5      0.00000     20.49511      5.33689     18.25289
   11 1     5      0.00000      5.33689     20.49511     18.25289
   12 1     5      0.00000     20.49511     20.49511      7.57911
   13 1     5      0.00000      5.33689      7.57911     20.49511
   14 1     5      0.00000     20.49511     18.25289     20.49511
   15 1     5      0.00000      5.33689     18.25289      5.33689
   16 1     5      0.00000     20.49511      7.57911      5.33689
   17 1     5      0.00000      7.57911      5.33689     20.49511
   18 1     5      0.00000     18.25289      5.33689      5.33689
   19 1     5      0.00000     18.25289     20.49511     20.49511
   20 1     5      0.00000      7.57911     20.49511      5.33689
   21 1     5      0.00000      5.33689      5.33689     18.25289
   22 1     5      0.00000      5.33689     20.49511      7.57911
   23 1     5      0.00000     20.49511      5.33689      7.57911
   24 1     5      0.00000     20.49511     20.49511     18.25289
   25 1     5      0.00000      7.57911     18.25289     18.25289
   26 1     5      0.00000     18.25289      7.57911     18.25289
   27 1     5      0.00000     18.25289     18.25289      7.57911
   28 1     5      0.00000      7.57911      7.57911      7.57911
   29 1     5      0.00000      7.57911     18.25289      7.57911
   30 1     5      0.00000     18.25289     18.25289     18.25289
   31 1     5      0.00000     18.25289      7.57911      7.57911
   32 1     5      0.00000      7.57911      7.57911     18.25289
   33 1     2      0.00000      7.87618      5.03982      1.15727
   34 1     2      0.00000     17.95582     20.79218      1.15727
   35 1     2      0.00000     17.95582      5.03982     24.67473
   36 1     2      0.00000      7.87618     20.79218     24.67473
   37 1     2      0.00000      1.15727      7.87618      5.03982
   38 1     2      0.00000      1.15727     17.95582     20.79218
   39 1     2      0.00000     24.67473     17.95582      5.03982
   40 1     2      0.00000     24.67473      7.87618     20.79218
   41 1     2      0.00000      5.03982      1.15727      7.87618
   42 1     2      0.00000     20.79218      1.15727     17.95582
   43 1     2      0.00000      5.03982     24.67473     17.95582
   44 1     2      0.00000     20.79218     24.67473      7.87618
   45 1     2      0.00000      5.03982      7.87618     24.67473
   46 1     2      0.00000     20.79218     17.95582     24.67473
   47 1     2      0.00000      5.03982     17.95582      1.15727
   48 1     2      0.00000     20.79218      7.87618      1.15727
   49 1     2      0.00000      7.87618      1.15727     20.79218
   50 1     2      0.00000     17.95582      1.15727      5.03982
   51 1     2      0.00000     17.95582     24.67473     20.79218
   52 1     2      0.00000      7.87618     24.67473      5.03982
   53 1     2      0.00000      1.15727      5.03982     17.95582
   54 1     2      0.00000      1.15727     20.79218      7.87618
   55 1     2      0.00000     24.67473      5.03982      7.87618
   56 1     2      0.00000     24.67473     20.79218     17.95582
   57 1     2      0.00000     17.95582     20.79218     24.67473
   58 1     2      0.00000      7.87618      5.03982     24.67473
   59 1     2      0.00000      7.87618     20.79218      1.15727
   60 1     2      0.00000     17.95582      5.03982      1.15727
   61 1     2      0.00000     24.67473     17.95582     20.79218
   62 1     2      0.00000     24.67473      7.87618      5.03982
   63 1     2      0.00000      1.15727      7.87618     20.79218
   64 1     2      0.00000      1.15727     17.95582      5.03982
   65 1     2      0.00000     20.79218     24.67473     17.95582
   66 1     2      0.00000      5.03982     24.67473      7.87618
   67 1     2      0.00000     20.79218      1.15727      7.87618
   68 1     2      0.00000      5.03982      1.15727     17.95582
   69 1     2      0.00000     20.79218     17.95582      1.15727
   70 1     2      0.00000      5.03982      7.87618      1.15727
   71 1     2      0.00000     20.79218      7.87618     24.67473
   72 1     2      0.00000      5.03982     17.95582     24.67473
   73 1     2      0.00000     17.95582     24.67473      5.03982
   74 1     2      0.00000      7.87618     24.67473     20.79218
   75 1     2      0.00000      7.87618      1.15727      5.03982
   76 1     2      0.00000     17.95582      1.15727     20.79218
   77 1     2      0.00000     24.67473     20.79218      7.87618
   78 1     2      0.00000     24.67473      5.03982     17.95582
   79 1     2      0.00000      1.15727     20.79218     17.95582
   80 1     2      0.00000      1.15727      5.03982      7.87618
   81 1     2      0.00000      7.87618     17.95582     14.07327
   82 1     2      0.00000     17.95582      7.87618     14.07327
   83 1     2      0.00000     17.95582     17.95582     11.75873
   84 1     2      0.00000      7.87618      7.87618     11.75873
   85 1     2      0.00000      5.03982     14.07327     20.79218
   86 1     2      0.00000     20.79218     14.07327      5.03982
   87 1     2      0.00000      5.03982     11.75873      5.03982
   88 1     2      0.00000     20.79218     11.75873     20.79218
   89 1     2      0.00000      5.03982     20.79218     11.75873
   90 1     2      0.00000     20.79218      5.03982     11.75873
   91 1     2      0.00000      5.03982      5.03982     14.07327
   92 1     2      0.00000     20.79218     20.79218     14.07327
   93 1     2      0.00000      7.87618     14.07327      7.87618
   94 1     2      0.00000     17.95582     14.07327     17.95582
   95 1     2      0.00000     17.95582     11.75873      7.87618
   96 1     2      0.00000      7.87618     11.75873     17.95582
   97 1     2      0.00000     17.95582      7.87618     11.75873
   98 1     2      0.00000      7.87618     17.95582     11.75873
   99 1     2      0.00000      7.87618      7.87618     14.07327
  100 1     2      0.00000     17.95582     17.95582     14.07327
  101 1     2      0.00000     20.79218     11.75873      5.03982
  102 1     2      0.00000      5.03982     11.75873     20.79218
  103 1     2      0.00000     20.79218     14.07327     20.79218
  104 1     2      0.00000      5.03982     14.07327      5.03982
  105 1     2      0.00000     20.79218      5.03982     14.07327
  106 1     2      0.00000      5.03982     20.79218     14.07327
  107 1     2      0.00000     20.79218     20.79218     11.75873
  108 1     2      0.00000      5.03982      5.03982     11.75873
  109 1     2      0.00000     17.95582     11.75873     17.95582
  110 1     2      0.00000      7.87618     11.75873      7.87618
  111 1     2      0.00000      7.87618     14.07327     17.95582
  112 1     2      0.00000     17.95582     14.07327      7.87618
  113 1     2      0.00000     14.07327      7.87618     17.95582
  114 1     2      0.00000     14.07327     17.95582      7.87618
  115 1     2      0.00000     11.75873     17.95582     17.95582
  116 1     2      0.00000     11.75873      7.87618      7.87618
  117 1     2      0.00000     14.07327      5.03982      5.03982
  118 1     2      0.00000     14.07327     20.79218     20.79218
  119 1     2      0.00000     11.75873      5.03982     20.79218
  120 1     2      0.00000     11.75873     20.79218      5.03982
  121 1     2      0.00000     11.75873     17.95582      7.87618
  122 1     2      0.00000     11.75873      7.87618     17.95582
  123 1     2      0.00000     14.07327      7.87618      7.87618
  124 1     2      0.00000     14.07327     17.95582     17.95582
  125 1     2      0.00000     11.75873     20.79218     20.79218
  126 1     2      0.00000     11.75873      5.03982      5.03982
  127 1     2      0.00000     14.07327     20.79218      5.03982
  128 1     2      0.00000     14.07327      5.03982     20.79218
  129 1     1      0.00000      6.45800      6.45800      2.87510
  130 1     1      0.00000     19.37400     19.37400      2.87510
  131 1     1      0.00000     19.37400      6.45800     22.95690
  132 1     1      0.00000      6.45800     19.37400     22.95690
  133 1     1      0.00000      2.87510      6.45800      6.45800
  134 1     1      0.00000      2.87510     19.37400     19.37400
  135 1     1      0.00000     22.95690     19.37400      6.45800
  136 1     1      0.00000     22.95690      6.45800     19.37400
  137 1     1      0.00000      6.45800      2.87510      6.45800
  138 1     1      0.00000     19.37400      2.87510     19.37400
  139 1     1      0.00000      6.45800     22.95690     19.37400
  140 1     1      0.00000     19.37400     22.95690      6.45800
  141 1     1      0.00000      6.45800      6.45800     22.95690
  142 1     1      0.00000     19.37400     19.37400     22.95690
  143 1     1      0.00000      6.45800     19.37400      2.87510
  144 1     1      0.00000     19.37400      6.45800      2.87510
  145 1     1      0.00000      6.45800      2.87510     19.37400
  146 1     1      0.00000     19.37400      2.87510      6.45800
  147 1     1      0.00000     19.37400     22.95690     19.37400
  148 1     1      0.00000      6.45800     22.95690      6.45800
  149 1     1      0.00000      2.87510      6.45800     19.37400
  150 1     1      0.00000      2.87510     19.37400      6.45800
  151 1     1      0.00000     22.95690      6.45800      6.45800
  152 1     1      0.00000     22.95690     19.37400     19.37400
  153 1     1      0.00000      6.45800     19.37400     15.79110
  154 1     1      0.00000     19.37400      6.45800     15.79110
  155 1     1      0.00000     19.37400     19.37400     10.04090
  156 1     1      0.00000      6.45800      6.45800     10.04090
  157 1     1      0.00000      6.45800     15.79110     19.37400
  158 1     1      0.00000     19.37400     15.79110      6.45800
  159 1     1      0.00000      6.45800     10.04090      6.45800
  160 1     1      0.00000     19.37400     10.04090     19.37400
  161 1     1      0.00000      6.45800     19.37400     10.04090
  162 1     1      0.00000     19.37400      6.45800     10.04090
  163 1     1      0.00000      6.45800      6.45800     15.79110
  164 1     1      0.00000     19.37400     19.37400     15.79110
  165 1     1      0.00000      6.45800     15.79110      6.45800
  166 1     1      0.00000     19.37400     15.79110     19.37400
  167 1     1      0.00000     19.37400     10.04090      6.45800
  168 1     1      0.00000      6.45800     10.04090     19.37400
  169 1     1      0.00000     15.79110      6.45800     19.37400
  170 1     1      0.00000     15.79110     19.37400      6.45800
  171 1     1      0.00000     10.04090     19.37400     19.37400
  172 1     1      0.00000     10.04090      6.45800      6.45800
  173 1     1      0.00000     15.79110      6.45800      6.45800
  174 1     1      0.00000     15.79110     19.37400     19.37400
  175 1     1      0.00000     10.04090      6.45800     19.37400
  176 1     1      0.00000     10.04090     19.37400      6.45800
  177 1     1      0.00000      6.45800      6.45800      1.38976
  178 1     1      0.00000     19.37400     19.37400      1.38976
  179 1     1      0.00000     19.37400      6.45800     24.44224
  180 1     1      0.00000      6.45800     19.37400     24.44224
  181 1     1      0.00000      1.38976      6.45800      6.45800
  182 1     1      0.00000      1.38976     19.37400     19.37400
  183 1     1      0.00000     24.44224     19.37400      6.45800
  184 1     1      0.00000     24.44224      6.45800     19.37400
  185 1     1      0.00000      6.45800      1.38976      6.45800
  186 1     1      0.00000     19.37400      1.38976     19.37400
  187 1     1      0.00000      6.45800     24.44224     19.37400
  188 1     1      0.00000     19.37400     24.44224      6.45800
  189 1     1      0.00000      6.45800      6.45800     24.44224
  190 1     1      0.00000     19.37400     19.37400     24.44224
  191 1     1      0.00000      6.45800     19.37400      1.38976
  192 1     1      0.00000     19.37400      6.45800      1.38976
  193 1     1      0.00000      6.45800      1.38976     19.37400
  194 1     1      0.00000     19.37400      1.38976      6.45800
  195 1     1      0.00000     19.37400     24.44224     19.37400
  196 1     1      0.00000      6.45800     24.44224      6.45800
  197 1     1      0.00000      1.38976      6.45800     19.37400
  198 1     1      0.00000      1.38976     19.37400      6.45800
  199 1     1      0.00000     24.44224      6.45800      6.45800
  200 1     1      0.00000     24.44224     19.37400     19.37400
  201 1     1      0.00000      6.45800     19.37400     14.30576
  202 1     1      0.00000     19.37400      6.45800     14.30576
  203 1     1      0.00000     19.37400     19.37400     11.52624
  204 1     1      0.00000      6.45800      6.45800     11.52624
  205 1     1      0.00000      6.45800     14.30576     19.37400
  206 1     1      0.00000     19.37400     14.30576      6.45800
  207 1     1      0.00000      6.45800     11.52624      6.45800
  208 1     1      0.00000     19.37400     11.52624     19.37400
  209 1     1      0.00000      6.45800     19.37400     11.52624
  210 1     1      0.00000     19.37400      6.45800     11.52624
  211 1     1      0.00000      6.45800      6.45800     14.30576
  212 1     1      0.00000     19.37400     19.37400     14.30576
  213 1     1      0.00000      6.45800     14.30576      6.45800
  214 1     1      0.00000     19.37400     14.30576     19.37400
  215 1     1      0.00000     19.37400     11.52624      6.45800
  216 1     1      0.00000      6.45800     11.52624     19.37400
  217 1     1      0.00000     14.30576      6.45800     19.37400
  218 1     1      0.00000     14.30576     19.37400      6.45800
  219 1     1      0.00000     11.52624     19.37400     19.37400
  220 1     1      0.00000     11.52624      6.45800      6.45800
  221 1     1      0.00000     14.30576      6.45800      6.45800
  222 1     1      0.00000     14.30576     19.37400     19.37400
  223 1     1      0.00000     11.52624      6.45800     19.37400
  224 1     1      0.00000     11.52624     19.37400      6.45800
  225 1     1      0.00000      7.30787      5.60813      0.69488
  226 1     1      0.00000     18.52413     20.22387      0.69488
  227 1     1      0.00000     18.52413      5.60813     25.13712
  228 1     1      0.00000      7.30787     20.22387     25.13712
  229 1     1      0.00000      0.69488      7.30787      5.60813
  230 1     1      0.00000      0.69488     18.52413     20.22387
  231 1     1      0.00000     25.13712     18.52413      5.60813
  232 1     1      0.00000     25.13712      7.30787     20.22387
  233 1     1      0.00000      5.60813      0.69488      7.30787
  234 1     1      0.00000     20.22387      0.69488     18.52413
  235 1     1      0.00000      5.60813     25.13712     18.52413
  236 1     1      0.00000     20.22387     25.13712      7.30787
  237 1     1      0.00000      5.60813      7.30787     25.13712
  238 1     1      0.00000     20.22387     18.52413     25.13712
  239 1     1      0.00000      5.60813     18.52413      0.69488
  240 1     1      0.00000     20.22387      7.30787      0.69488
  241 1     1      0.00000      7.30787      0.69488     20.22387
  242 1     1      0.00000     18.52413      0.69488      5.60813
  243 1     1      0.00000     18.52413     25.13712     20.22387
  244 1     1      0.00000      7.30787     25.13712      5.60813
  245 1     1      0.00000      0.69488      5.60813     18.52413
  246 1     1      0.00000      0.69488     20.22387      7.30787
  247 1     1      0.00000     25.13712      5.60813      7.30787
  248 1     1      0.00000     25.13712     20.22387     18.52413
  249 1     1      0.00000     18.52413     20.22387     25.13712
  250 1     1      0.00000      7.30787      5.60813     25.13712
  251 1     1      0.00000      7.30787     20.22387      0.69488
  252 1     1      0.00000     18.52413      5.60813      0.69488
  253 1     1      0.00000     25.13712     18.52413     20.22387
  254 1     1      0.00000     25.13712      7.30787      5.60813
  255 1     1      0.00000      0.69488      7.30787     20.22387
  256 1     1      0.00000      0.69488     18.52413      5.60813
  257 1     1      0.00000     20.22387     25.13712     18.52413
  258 1     1      0.00000      5.60813     25.13712      7.30787
  259 1     1      0.00000     20.22387      0.69488      7.30787
  260 1     1      0.00000      5.60813      0.69488     18.52413
  261 1     1      0.00000     20.22387     18.52413      0.69488
  262 1     1      0.00000      5.60813      7.30787      0.69488
  263 1     1      0.00000     20.22387      7.30787     25.13712
  264 1     1      0.00000      5.60813     18.52413     25.13712
  265 1     1      0.00000     18.52413     25.13712      5.60813
  266 1     1      0.00000      7.30787     25.13712     20.22387
  267 1     1      0.00000      7.30787      0.69488      5.60813
  268 1     1      0.00000     18.52413      0.69488     20.22387
  269 1     1      0.00000     25.13712     20.22387      7.30787
  270 1     1      0.00000     25.13712      5.60813     18.52413
  271 1     1      0.00000      0.69488     20.22387     18.52413
  272 1     1      0.00000      0.69488      5.60813      7.30787
  273 1     1      0.00000      7.30787     18.52413     13.61088
  274 1     1      0.00000     18.52413      7.30787     13.61088
  275 1     1      0.00000     18.52413     18.52413     12.22112
  276 1     1      0.00000      7.30787      7.30787     12.22112
  277 1     1      0.00000      5.60813     13.61088     20.22387
  278 1     1      0.00000     20.22387     13.61088      5.60813
  279 1     1      0.00000      5.60813     12.22112      5.60813
  280 1     1      0.00000     20.22387     12.22112     20.22387
  281 1     1      0.00000      5.60813     20.22387     12.22112
  282 1     1      0.00000     20.22387      5.60813     12.22112
  283 1     1      0.00000      5.60813      5.60813     13.61088
  284 1     1      0.00000     20.22387     20.22387     13.61088
  285 1     1      0.00000      7.30787     13.61088      7.30787
  286 1     1      0.00000     18.52413     13.61088     18.52413
  287 1     1      0.00000     18.52413     12.22112      7.30787
  288 1     1      0.00000      7.30787     12.22112     18.52413
  289 1     1      0.00000     18.52413      7.30787     12.22112
  290 1     1      0.00000      7.30787     18.52413     12.22112
  291 1     1      0.00000      7.30787      7.30787     13.61088
  292 1     1      0.00000     18.52413     18.52413     13.61088
  293 1     1      0.00000     20.22387     12.22112      5.60813
  294 1     1      0.00000      5.60813     12.22112     20.22387
  295 1     1      0.00000     20.22387     13.61088     20.22387
  296 1     1      0.00000      5.60813     13.61088      5.60813
  297 1     1      0.00000     20.22387      5.60813     13.61088
  298 1     1      0.00000      5.60813     20.22387     13.61088
  299 1     1      0.00000     20.22387     20.22387     12.22112
  300 1     1      0.00000      5.60813      5.60813     12.22112
  301 1     1      0.00000     18.52413     12.22112     18.52413
  302 1     1      0.00000      7.30787     12.22112      7.30787
  303 1     1      0.00000      7.30787     13.61088     18.52413
  304 1     1      0.00000     18.52413     13.61088      7.30787
  305 1     1      0.00000     13.61088      7.30787     18.52413
  306 1     1      0.00000     13.61088     18.52413      7.30787
  307 1     1      0.00000     12.22112     18.52413     18.52413
  308 1     1      0.00000     12.22112      7.30787      7.30787
  309 1     1      0.00000     13.61088      5.60813      5.60813
  310 1     1      0.00000     13.61088     20.22387     20.22387
  311 1     1      0.00000     12.22112      5.60813     20.22387
  312 1     1      0.00000     12.22112     20.22387      5.60813
  313 1     1      0.00000     12.22112     18.52413      7.30787
  314 1     1      0.00000     12.22112      7.30787     18.52413
  315 1     1      0.00000     13.61088      7.30787      7.30787
  316 1     1      0.00000     13.61088     18.52413     18.52413
  317 1     1      0.00000     12.22112     20.22387     20.22387
  318 1     1      0.00000     12.22112      5.60813      5.60813
  319 1     1      0.00000     13.61088     20.22387      5.60813
  320 1     1      0.00000     13.61088      5.60813     20.22387
  321 1     4      0.00000      6.45800      6.45800      6.45800
  322 1     4      0.00000     19.37400     19.37400      6.45800
  323 1     4      0.00000     19.37400      6.45800     19.37400
  324 1     4      0.00000      6.45800     19.37400     19.37400
  325 1     4      0.00000      6.45800      6.45800     19.37400
  326 1     4      0.00000     19.37400     19.37400     19.37400
  327 1     4      0.00000      6.45800     19.37400      6.45800
  328 1     4      0.00000     19.37400      6.45800      6.45800
  329 1     3      0.00000      7.28204      5.63396      3.46149
  330 1     3      0.00000     18.54996     20.19804      3.46149
  331 1     3      0.00000     18.54996      5.63396     22.37051
  332 1     3      0.00000      7.28204     20.19804     22.37051
  333 1     3      0.00000      3.46149      7.28204      5.63396
  334 1     3      0.00000      3.46149     18.54996     20.19804
  335 1     3      0.00000     22.37051     18.54996      5.63396
  336 1     3      0.00000     22.37051      7.28204     20.19804
  337 1     3      0.00000      5.63396      3.46149      7.28204
  338 1     3      0.00000     20.19804      3.46149     18.54996
  339 1     3      0.00000      5.63396     22.37051     18.54996
  340 1     3      0.00000     20.19804     22.37051      7.28204
  341 1     3      0.00000      5.63396      7.28204     22.37051
  342 1     3      0.00000     20.19804     18.54996     22.37051
  343 1     3      0.00000      5.63396     18.54996      3.46149
  344 1     3      0.00000     20.19804      7.28204      3.46149
  345 1     3      0.00000      7.28204      3.46149     20.19804
  346 1     3      0.00000     18.54996      3.46149      5.63396
  347 1     3      0.00000     18.54996     22.37051     20.19804
  348 1     3      0.00000      7.28204     22.37051      5.63396
  349 1     3      0.00000      3.46149      5.63396     18.54996
  350 1     3      0.00000      3.46149     20.19804      7.28204
  351 1     3      0.00000     22.37051      5.63396      7.28204
  352 1     3      0.00000     22.37051     20.19804     18.54996
  353 1     3      0.00000     18.54996     20.19804     22.37051
  354 1     3      0.00000      7.28204      5.63396     22.37051
  355 1     3      0.00000      7.28204     20.19804      3.46149
  356 1     3      0.00000     18.54996      5.63396      3.46149
  357 1     3      0.00000     22.37051     18.54996     20.19804
  358 1     3      0.00000     22.37051      7.28204      5.63396
  359 1     3      0.00000      3.46149      7.28204     20.19804
  360 1     3      0.00000      3.46149     18.54996      5.63396
  361 1     3      0.00000     20.19804     22.37051     18.54996
  362 1     3      0.00000      5.63396     22.37051      7.28204
  363 1     3      0.00000     20.19804      3.46149      7.28204
  364 1     3      0.00000      5.63396      3.46149     18.54996
  365 1     3      0.00000     20.19804     18.54996      3.46149
  366 1     3      0.00000      5.63396      7.28204      3.46149
  367 1     3      0.00000     20.19804      7.28204     22.37051
  368 1     3      0.00000      5.63396     18.54996     22.37051
  369 1     3      0.00000     18.54996     22.37051      5.63396
  370 1     3      0.00000      7.28204     22.37051     20.19804
  371 1     3      0.00000      7.28204      3.46149      5.63396
  372 1     3      0.00000     18.54996      3.46149     20.19804
  373 1     3      0.00000     22.37051     20.19804      7.28204
  374 1     3      0.00000     22.37051      5.63396     18.54996
  375 1     3      0.00000      3.46149     20.19804     18.54996
  376 1     3      0.00000      3.46149      5.63396      7.28204
  377 1     3      0.00000      7.28204     18.54996     16.37749
  378 1     3      0.00000     18.54996      7.28204     16.37749
  379 1     3      0.00000     18.54996     18.54996      9.45451
  380 1     3      0.00000      7.28204      7.28204      9.45451
  381 1     3      0.00000      5.63396     16.37749     20.19804
  382 1     3      0.00000     20.19804     16.37749      5.63396
  383 1     3      0.00000      5.63396      9.45451      5.63396
  384 1     3      0.00000     20.19804      9.45451     20.19804
  385 1     3      0.00000      5.63396     20.19804      9.45451
  386 1     3      0.00000     20.19804      5.63396      9.45451
  387 1     3      0.00000      5.63396      5.63396     16.37749
  388 1     3      0.00000     20.19804     20.19804     16.37749
  389 1     3      0.00000      7.28204     16.37749      7.28204
  390 1     3      0.00000     18.54996     16.37749     18.54996
  391 1     3      0.00000     18.54996      9.45451      7.28204
  392 1     3      0.00000      7.28204      9.45451     18.54996
  393 1     3      0.00000     18.54996      7.28204      9.45451
  394 1     3      0.00000      7.28204     18.54996      9.45451
  395 1     3      0.00000      7.28204      7.28204     16.37749
  396 1     3      0.00000     18.54996     18.54996     16.37749
  397 1     3      0.00000     20.19804      9.45451      5.63396
  398 1     3      0.00000      5.63396      9.45451     20.19804
  399 1     3      0.00000     20.19804     16.37749     20.19804
  400 1     3      0.00000      5.63396     16.37749      5.63396
  401 1     3      0.00000     20.19804      5.63396     16.37749
  402 1     3      0.00000      5.63396     20.19804     16.37749
  403 1     3      0.00000     20.19804     20.19804      9.45451
  404 1     3      0.00000      5.63396      5.63396      9.45451
  405 1     3      0.00000     18.54996      9.45451     18.54996
  406 1     3      0.00000      7.28204      9.45451      7.28204
  407 1     3      0.00000      7.28204     16.37749     18.54996
  408 1     3      0.00000     18.54996     16.37749      7.28204
  409 1     3      0.00000     16.37749      7.28204     18.54996
  410 1     3      0.00000     16.37749     18.54996      7.28204
  411 1     3      0.00000      9.45451     18.54996     18.54996
  412 1     3      0.00000      9.45451      7.28204      7.28204
  413 1     3      0.00000     16.37749      5.63396      5.63396
  414 1     3      0.00000     16.37749     20.19804     20.19804
  415 1     3      0.00000      9.45451      5.63396     20.19804
  416 1     3      0.00000      9.45451     20.19804      5.63396
  417 1     3      0.00000      9.45451     18.54996      7.28204
  418 1     3      0.00000      9.45451      7.28204     18.54996
  419 1     3      0.00000     16.37749      7.28204      7.28204