Created by Ryther's code on 2024-12-06 21:55:25.149626

    72 atoms
    90 bonds
    200 angles
    160 dihedrals
    32 impropers

    5 atom types
    7 bond types
    12 angle types
    3 dihedral types
    2 improper types

0.00000000 6.8179 xlo xhi
0.00000000 16.143 ylo yhi
0.00000000 13.939 zlo zhi
0.0 0.0 0.0 xy xz yz 

Masses 

    1    12.0107
    2    1.00794
    3    15.9994
    4    15.9994
    5    50.9415

Pair Coeffs

    1       0.10500      3.43085 # C_R C_R
    2       0.04400      2.57113 # H_ H_
    3       0.06000      3.11815 # O_2_M O_2_M
    4       0.06000      3.11815 # O_2_z O_2_z
    5       0.01600      2.80099 # V_6+3 V_6+3

Bond Coeffs

    1     246.43011      2.02489 # O_2_M V_6+3 bond order=0.5
    2      81.55198      3.08010 # V_6+3 V_6+3 bond order=0.25
    3     383.19070      1.74776 # O_2_z V_6+3 bond order=1.0
    4     357.44038      1.08142 # C_R H_ bond order=1.0
    5     462.65505      1.37926 # C_R C_R bond order=1.5
    6     391.66951      1.45800 # C_R C_R bond order=1.0
    7     714.55744      1.26901 # C_R O_2_M bond order=1.5

Angle Coeffs

    1      56.25522            1            4 # O_2_M V_6+3 V_6+3
    2     136.18700            1            4 # O_2_M V_6+3 O_2_z
    3     112.20478            1            4 # O_2_M V_6+3 O_2_M
    4      59.31177            1            4 # O_2_z V_6+3 V_6+3
    5     174.45957            1            4 # O_2_z V_6+3 O_2_z
    6      57.28902           -1            3 # C_R C_R H_
    7     111.29751           -1            3 # C_R C_R C_R
    8     102.18328           -1            3 # C_R C_R C_R
    9     137.71425           -1            3 # C_R C_R O_2_M
    10    206.77843           -1            3 # O_2_M C_R O_2_M
    11    107.37657           -1            3 # V_6+3 O_2_z V_6+3
    12     85.53555           -1            3 # C_R O_2_M V_6+3

Dihedral Coeffs

    1       3.36856           -1            2 # X C_R C_R X bond order=1.5
    2       1.25000           -1            2 # X C_R C_R X bond order=1.0
    3       6.73711           -1            2 # X C_R O_2_M X bond order=1.5

Improper Coeffs

    1       2.00000      1.00000     -1.00000      0.00000            1 # C_R X X X O_2 present=False
    2      16.66667      1.00000     -1.00000      0.00000            1 # C_R X X X O_2 present=True

Atoms

    1 1     5      0.00000      1.36494      4.03575     10.30315
    2 1     5      0.00000      2.04401     12.10725      3.33365
    3 1     5      0.00000      5.45296     12.10725      3.63585
    4 1     5      0.00000      4.77389      4.03575     10.60535
    5 1     2      0.00000      1.37381      0.89432      7.56191
    6 1     2      0.00000      2.03514     15.24868      0.59241
    7 1     2      0.00000      5.44409      8.96582      6.37709
    8 1     2      0.00000      4.78276      7.17718     13.34659
    9 1     2      0.00000      5.44409     15.24868      6.37709
   10 1     2      0.00000      4.78276      0.89432     13.34659
   11 1     2      0.00000      1.37381      7.17718      7.56191
   12 1     2      0.00000      2.03514      8.96582      0.59241
   13 1     2      0.00000      5.33842      0.88464      7.82117
   14 1     2      0.00000      4.88843     15.25836      0.85167
   15 1     2      0.00000      1.47948      8.95614      6.11783
   16 1     2      0.00000      1.92947      7.18686     13.08733
   17 1     2      0.00000      1.47948     15.25836      6.11783
   18 1     2      0.00000      1.92947      0.88464     13.08733
   19 1     2      0.00000      5.33842      7.18686      7.82117
   20 1     2      0.00000      4.88843      8.95614      0.85167
   21 1     1      0.00000      2.19877      0.53110      7.33331
   22 1     1      0.00000      1.21018     15.61190      0.36381
   23 1     1      0.00000      4.61913      8.60260      6.60569
   24 1     1      0.00000      5.60772      7.54040     13.57519
   25 1     1      0.00000      4.61913     15.61190      6.60569
   26 1     1      0.00000      5.60772      0.53110     13.57519
   27 1     1      0.00000      2.19877      7.54040      7.33331
   28 1     1      0.00000      1.21018      8.60260      0.36381
   29 1     1      0.00000      4.55095      0.52142      7.48385
   30 1     1      0.00000      5.67590     15.62158      0.51435
   31 1     1      0.00000      2.26695      8.59292      6.45515
   32 1     1      0.00000      1.14200      7.55008     13.42465
   33 1     1      0.00000      2.26695     15.62158      6.45515
   34 1     1      0.00000      1.14200      0.52142     13.42465
   35 1     1      0.00000      4.55095      7.55008      7.48385
   36 1     1      0.00000      5.67590      8.59292      0.51435
   37 1     1      0.00000      3.34827      1.04768      7.87554
   38 1     1      0.00000      0.06068     15.09532      0.90604
   39 1     1      0.00000      3.46963      9.11918      6.06346
   40 1     1      0.00000      6.75722      7.02382     13.03297
   41 1     1      0.00000      3.46963     15.09532      6.06346
   42 1     1      0.00000      6.75722      1.04768     13.03297
   43 1     1      0.00000      3.34827      7.02382      7.87554
   44 1     1      0.00000      0.06068      9.11918      0.90604
   45 1     1      0.00000      3.25964      2.20513      8.82757
   46 1     1      0.00000      0.14931     13.93787      1.85807
   47 1     1      0.00000      3.55826     10.27663      5.11143
   48 1     1      0.00000      6.66859      5.86637     12.08093
   49 1     1      0.00000      3.55826     13.93787      5.11143
   50 1     1      0.00000      6.66859      2.20513     12.08093
   51 1     1      0.00000      3.25964      5.86637      8.82757
   52 1     1      0.00000      0.14931     10.27663      1.85807
   53 1     4      0.00000      6.64813      4.03575      9.64021
   54 1     4      0.00000      3.57872     12.10725      2.67071
   55 1     4      0.00000      0.16977     12.10725      4.29879
   56 1     4      0.00000      3.23918      4.03575     11.26829
   57 1     3      0.00000      2.12582      2.63454      9.13701
   58 1     3      0.00000      1.28313     13.50846      2.16751
   59 1     3      0.00000      4.69208     10.70604      4.80199
   60 1     3      0.00000      5.53477      5.43696     11.77149
   61 1     3      0.00000      4.69208     13.50846      4.80199
   62 1     3      0.00000      5.53477      2.63454     11.77149
   63 1     3      0.00000      2.12582      5.43696      9.13701
   64 1     3      0.00000      1.28313     10.70604      2.16751
   65 1     3      0.00000      0.96473      2.62485     11.61816
   66 1     3      0.00000      2.44422     13.51815      4.64866
   67 1     3      0.00000      5.85317     10.69635      2.32084
   68 1     3      0.00000      4.37368      5.44665      9.29034
   69 1     3      0.00000      5.85317     13.51815      2.32084
   70 1     3      0.00000      4.37368      2.62485      9.29034
   71 1     3      0.00000      0.96473      5.44665     11.61816
   72 1     3      0.00000      2.44422     10.69635      4.64866

Bonds

    1 1     1      57    
    2 1     1      71    
    3 1     1      63    
    4 1     1      65    
    5 1     2      64    
    6 1     2      72    
    7 1     2      58    
    8 1     2      66    
    9 1     3      67    
   10 1     3      69    
   11 1     3      59    
   12 1     3      61    
   13 1     4      60    
   14 1     4      68    
   15 1     4      70    
   16 1     4      62    
   17 2     1      4     
   18 2     2      3     
   19 3     1      56    
   20 3     1      53    
   21 3     2      54    
   22 3     2      55    
   23 3     3      55    
   24 3     3      54    
   25 3     4      53    
   26 3     4      56    
   27 4     5      21    
   28 4     6      22    
   29 4     7      23    
   30 4     8      24    
   31 4     9      25    
   32 4     10     26    
   33 4     11     27    
   34 4     12     28    
   35 4     13     29    
   36 4     14     30    
   37 4     15     31    
   38 4     16     32    
   39 4     17     33    
   40 4     18     34    
   41 4     19     35    
   42 4     20     36    
   43 5     21     37    
   44 5     21     33    
   45 5     22     38    
   46 5     22     34    
   47 5     23     35    
   48 5     23     39    
   49 5     24     36    
   50 5     24     40    
   51 5     25     41    
   52 5     25     29    
   53 5     26     42    
   54 5     26     30    
   55 5     27     31    
   56 5     27     43    
   57 5     28     44    
   58 5     28     32    
   59 5     29     37    
   60 5     30     38    
   61 5     31     39    
   62 5     32     40    
   63 5     33     41    
   64 5     34     42    
   65 5     35     43    
   66 5     36     44    
   67 6     37     45    
   68 6     38     46    
   69 6     39     47    
   70 6     40     48    
   71 6     41     49    
   72 6     42     50    
   73 6     43     51    
   74 6     44     52    
   75 7     45     57    
   76 7     45     70    
   77 7     46     58    
   78 7     46     69    
   79 7     47     59    
   80 7     47     72    
   81 7     48     71    
   82 7     48     60    
   83 7     49     61    
   84 7     49     66    
   85 7     50     62    
   86 7     50     65    
   87 7     51     68    
   88 7     51     63    
   89 7     52     64    
   90 7     52     67    

Angles

    1 1     57     1      4     
    2 1     71     1      4     
    3 1     63     1      4     
    4 1     65     1      4     
    5 1     64     2      3     
    6 1     72     2      3     
    7 1     58     2      3     
    8 1     66     2      3     
    9 1     67     3      2     
   10 1     69     3      2     
   11 1     59     3      2     
   12 1     61     3      2     
   13 1     60     4      1     
   14 1     68     4      1     
   15 1     70     4      1     
   16 1     62     4      1     
   17 2     57     1      56    
   18 2     57     1      53    
   19 2     71     1      56    
   20 2     63     1      56    
   21 2     65     1      56    
   22 2     71     1      53    
   23 2     63     1      53    
   24 2     65     1      53    
   25 2     64     2      54    
   26 2     64     2      55    
   27 2     72     2      54    
   28 2     58     2      54    
   29 2     66     2      54    
   30 2     72     2      55    
   31 2     58     2      55    
   32 2     66     2      55    
   33 2     67     3      55    
   34 2     67     3      54    
   35 2     69     3      55    
   36 2     59     3      55    
   37 2     61     3      55    
   38 2     69     3      54    
   39 2     59     3      54    
   40 2     61     3      54    
   41 2     60     4      53    
   42 2     68     4      53    
   43 2     70     4      53    
   44 2     62     4      53    
   45 2     60     4      56    
   46 2     68     4      56    
   47 2     70     4      56    
   48 2     62     4      56    
   49 3     57     1      71    
   50 3     57     1      63    
   51 3     57     1      65    
   52 3     71     1      63    
   53 3     71     1      65    
   54 3     63     1      65    
   55 3     64     2      72    
   56 3     64     2      58    
   57 3     64     2      66    
   58 3     72     2      58    
   59 3     72     2      66    
   60 3     58     2      66    
   61 3     67     3      69    
   62 3     67     3      59    
   63 3     67     3      61    
   64 3     69     3      59    
   65 3     69     3      61    
   66 3     59     3      61    
   67 3     60     4      68    
   68 3     60     4      70    
   69 3     60     4      62    
   70 3     68     4      70    
   71 3     68     4      62    
   72 3     70     4      62    
   73 4     56     1      4     
   74 4     53     1      4     
   75 4     54     2      3     
   76 4     55     2      3     
   77 4     55     3      2     
   78 4     54     3      2     
   79 4     53     4      1     
   80 4     56     4      1     
   81 5     56     1      53    
   82 5     54     2      55    
   83 5     55     3      54    
   84 5     53     4      56    
   85 6     37     21     5     
   86 6     33     21     5     
   87 6     38     22     6     
   88 6     34     22     6     
   89 6     35     23     7     
   90 6     39     23     7     
   91 6     36     24     8     
   92 6     40     24     8     
   93 6     41     25     9     
   94 6     29     25     9     
   95 6     42     26     10    
   96 6     30     26     10    
   97 6     31     27     11    
   98 6     43     27     11    
   99 6     44     28     12    
  100 6     32     28     12    
  101 6     25     29     13    
  102 6     37     29     13    
  103 6     26     30     14    
  104 6     38     30     14    
  105 6     27     31     15    
  106 6     39     31     15    
  107 6     28     32     16    
  108 6     40     32     16    
  109 6     21     33     17    
  110 6     41     33     17    
  111 6     22     34     18    
  112 6     42     34     18    
  113 6     23     35     19    
  114 6     43     35     19    
  115 6     24     36     20    
  116 6     44     36     20    
  117 7     37     21     33    
  118 7     38     22     34    
  119 7     35     23     39    
  120 7     36     24     40    
  121 7     41     25     29    
  122 7     42     26     30    
  123 7     31     27     43    
  124 7     44     28     32    
  125 7     25     29     37    
  126 7     26     30     38    
  127 7     27     31     39    
  128 7     28     32     40    
  129 7     21     33     41    
  130 7     22     34     42    
  131 7     23     35     43    
  132 7     24     36     44    
  133 7     21     37     29    
  134 7     22     38     30    
  135 7     23     39     31    
  136 7     24     40     32    
  137 7     25     41     33    
  138 7     26     42     34    
  139 7     27     43     35    
  140 7     28     44     36    
  141 8     21     37     45    
  142 8     29     37     45    
  143 8     22     38     46    
  144 8     30     38     46    
  145 8     23     39     47    
  146 8     31     39     47    
  147 8     24     40     48    
  148 8     32     40     48    
  149 8     25     41     49    
  150 8     33     41     49    
  151 8     26     42     50    
  152 8     34     42     50    
  153 8     27     43     51    
  154 8     35     43     51    
  155 8     28     44     52    
  156 8     36     44     52    
  157 9     37     45     57    
  158 9     37     45     70    
  159 9     38     46     58    
  160 9     38     46     69    
  161 9     39     47     59    
  162 9     39     47     72    
  163 9     40     48     71    
  164 9     40     48     60    
  165 9     41     49     61    
  166 9     41     49     66    
  167 9     42     50     62    
  168 9     42     50     65    
  169 9     43     51     68    
  170 9     43     51     63    
  171 9     44     52     64    
  172 9     44     52     67    
  173 10    57     45     70    
  174 10    58     46     69    
  175 10    59     47     72    
  176 10    71     48     60    
  177 10    61     49     66    
  178 10    62     50     65    
  179 10    68     51     63    
  180 10    64     52     67    
  181 11    1      53     4     
  182 11    2      54     3     
  183 11    2      55     3     
  184 11    1      56     4     
  185 12    45     57     1     
  186 12    46     58     2     
  187 12    47     59     3     
  188 12    48     60     4     
  189 12    49     61     3     
  190 12    50     62     4     
  191 12    51     63     1     
  192 12    52     64     2     
  193 12    50     65     1     
  194 12    49     66     2     
  195 12    52     67     3     
  196 12    51     68     4     
  197 12    46     69     3     
  198 12    45     70     4     
  199 12    48     71     1     
  200 12    47     72     2     

Dihedrals

    1 1     5      21     37     29    
    2 1     5      21     37     45    
    3 1     33     21     37     29    
    4 1     33     21     37     45    
    5 1     5      21     33     17    
    6 1     5      21     33     41    
    7 1     37     21     33     17    
    8 1     37     21     33     41    
    9 1     6      22     38     30    
   10 1     6      22     38     46    
   11 1     34     22     38     30    
   12 1     34     22     38     46    
   13 1     6      22     34     18    
   14 1     6      22     34     42    
   15 1     38     22     34     18    
   16 1     38     22     34     42    
   17 1     7      23     35     19    
   18 1     7      23     35     43    
   19 1     39     23     35     19    
   20 1     39     23     35     43    
   21 1     7      23     39     31    
   22 1     7      23     39     47    
   23 1     35     23     39     31    
   24 1     35     23     39     47    
   25 1     8      24     36     20    
   26 1     8      24     36     44    
   27 1     40     24     36     20    
   28 1     40     24     36     44    
   29 1     8      24     40     32    
   30 1     8      24     40     48    
   31 1     36     24     40     32    
   32 1     36     24     40     48    
   33 1     9      25     41     33    
   34 1     9      25     41     49    
   35 1     29     25     41     33    
   36 1     29     25     41     49    
   37 1     9      25     29     13    
   38 1     9      25     29     37    
   39 1     41     25     29     13    
   40 1     41     25     29     37    
   41 1     10     26     42     34    
   42 1     10     26     42     50    
   43 1     30     26     42     34    
   44 1     30     26     42     50    
   45 1     10     26     30     14    
   46 1     10     26     30     38    
   47 1     42     26     30     14    
   48 1     42     26     30     38    
   49 1     11     27     31     15    
   50 1     11     27     31     39    
   51 1     43     27     31     15    
   52 1     43     27     31     39    
   53 1     11     27     43     35    
   54 1     11     27     43     51    
   55 1     31     27     43     35    
   56 1     31     27     43     51    
   57 1     12     28     44     36    
   58 1     12     28     44     52    
   59 1     32     28     44     36    
   60 1     32     28     44     52    
   61 1     12     28     32     16    
   62 1     12     28     32     40    
   63 1     44     28     32     16    
   64 1     44     28     32     40    
   65 1     13     29     37     21    
   66 1     13     29     37     45    
   67 1     25     29     37     21    
   68 1     25     29     37     45    
   69 1     14     30     38     22    
   70 1     14     30     38     46    
   71 1     26     30     38     22    
   72 1     26     30     38     46    
   73 1     15     31     39     23    
   74 1     15     31     39     47    
   75 1     27     31     39     23    
   76 1     27     31     39     47    
   77 1     16     32     40     24    
   78 1     16     32     40     48    
   79 1     28     32     40     24    
   80 1     28     32     40     48    
   81 1     17     33     41     25    
   82 1     17     33     41     49    
   83 1     21     33     41     25    
   84 1     21     33     41     49    
   85 1     18     34     42     26    
   86 1     18     34     42     50    
   87 1     22     34     42     26    
   88 1     22     34     42     50    
   89 1     19     35     43     27    
   90 1     19     35     43     51    
   91 1     23     35     43     27    
   92 1     23     35     43     51    
   93 1     20     36     44     28    
   94 1     20     36     44     52    
   95 1     24     36     44     28    
   96 1     24     36     44     52    
   97 2     21     37     45     57    
   98 2     21     37     45     70    
   99 2     29     37     45     57    
  100 2     29     37     45     70    
  101 2     22     38     46     58    
  102 2     22     38     46     69    
  103 2     30     38     46     58    
  104 2     30     38     46     69    
  105 2     23     39     47     59    
  106 2     23     39     47     72    
  107 2     31     39     47     59    
  108 2     31     39     47     72    
  109 2     24     40     48     71    
  110 2     24     40     48     60    
  111 2     32     40     48     71    
  112 2     32     40     48     60    
  113 2     25     41     49     61    
  114 2     25     41     49     66    
  115 2     33     41     49     61    
  116 2     33     41     49     66    
  117 2     26     42     50     62    
  118 2     26     42     50     65    
  119 2     34     42     50     62    
  120 2     34     42     50     65    
  121 2     27     43     51     68    
  122 2     27     43     51     63    
  123 2     35     43     51     68    
  124 2     35     43     51     63    
  125 2     28     44     52     64    
  126 2     28     44     52     67    
  127 2     36     44     52     64    
  128 2     36     44     52     67    
  129 3     37     45     57     1     
  130 3     70     45     57     1     
  131 3     37     45     70     4     
  132 3     57     45     70     4     
  133 3     38     46     58     2     
  134 3     69     46     58     2     
  135 3     38     46     69     3     
  136 3     58     46     69     3     
  137 3     39     47     59     3     
  138 3     72     47     59     3     
  139 3     39     47     72     2     
  140 3     59     47     72     2     
  141 3     40     48     71     1     
  142 3     60     48     71     1     
  143 3     40     48     60     4     
  144 3     71     48     60     4     
  145 3     41     49     61     3     
  146 3     66     49     61     3     
  147 3     41     49     66     2     
  148 3     61     49     66     2     
  149 3     42     50     62     4     
  150 3     65     50     62     4     
  151 3     42     50     65     1     
  152 3     62     50     65     1     
  153 3     43     51     68     4     
  154 3     63     51     68     4     
  155 3     43     51     63     1     
  156 3     68     51     63     1     
  157 3     44     52     64     2     
  158 3     67     52     64     2     
  159 3     44     52     67     3     
  160 3     64     52     67     3     

Impropers

    1 1     21     5      37     33    
    2 1     22     6      38     34    
    3 1     23     7      35     39    
    4 1     24     8      36     40    
    5 1     25     9      41     29    
    6 1     26     10     42     30    
    7 1     27     11     31     43    
    8 1     28     12     44     32    
    9 1     29     13     25     37    
   10 1     30     14     26     38    
   11 1     31     15     27     39    
   12 1     32     16     28     40    
   13 1     33     17     21     41    
   14 1     34     18     22     42    
   15 1     35     19     23     43    
   16 1     36     20     24     44    
   17 1     37     21     29     45    
   18 1     38     22     30     46    
   19 1     39     23     31     47    
   20 1     40     24     32     48    
   21 1     41     25     33     49    
   22 1     42     26     34     50    
   23 1     43     27     35     51    
   24 1     44     28     36     52    
   25 2     45     37     57     70    
   26 2     46     38     58     69    
   27 2     47     39     59     72    
   28 2     48     40     71     60    
   29 2     49     41     61     66    
   30 2     50     42     62     65    
   31 2     51     43     68     63    
   32 2     52     44     64     67    
