Created by Ryther's code on 2024-12-06 18:07:29.781788

    432 atoms
    496 bonds
    896 angles
    1088 dihedrals
    192 impropers

    6 atom types
    10 bond types
    17 angle types
    6 dihedral types
    3 improper types

0.00000000 13.9249 xlo xhi
0.00000000 23.653 ylo yhi
0.00000000 23.637 zlo zhi
0.0 0.0 0.0 xy xz yz 

Masses 

    1    12.0107
    2    12.0107
    3    1.00794
    4    14.0067
    5    15.9994
    6      65.38

Pair Coeffs

    1       0.10500      3.43085 # C_3 C_3
    2       0.10500      3.43085 # C_R C_R
    3       0.04400      2.57113 # H_ H_
    4       0.06900      3.26069 # N_R N_R
    5       0.06000      3.11815 # O_2_M O_2_M
    6       0.12400      2.46155 # Zn3f2 Zn3f2

Bond Coeffs

    1     118.05951      2.10756 # N_R Zn3f2 bond order=0.5
    2     122.16486      2.01487 # O_2_M Zn3f2 bond order=0.5
    3     357.44038      1.08142 # C_R H_ bond order=1.0
    4     331.06939      1.10940 # C_3 H_ bond order=1.0
    5     714.55744      1.26901 # C_R O_2_M bond order=1.5
    6     391.66951      1.45800 # C_R C_R bond order=1.0
    7     462.65505      1.37926 # C_R C_R bond order=1.5
    8     369.94394      1.48600 # C_3 C_R bond order=1.0
    9     663.66675      1.34507 # C_R N_R bond order=1.5
    10    786.43164      1.39800 # N_R N_R bond order=1.0

Angle Coeffs

    1  fourier                135.72606      0.34375      0.37500      0.28125 # N_R Zn3f2 O_2_M
    2  fourier                140.55920      0.34375      0.37500      0.28125 # N_R Zn3f2 N_R
    3  fourier                131.50718      0.34375      0.37500      0.28125 # O_2_M Zn3f2 O_2_M
    4  cosine/periodic        206.77843           -1            3 # O_2_M C_R O_2_M
    5  cosine/periodic        137.71425           -1            3 # C_R C_R O_2_M
    6  cosine/periodic        102.18328           -1            3 # C_R C_R C_R
    7  cosine/periodic        111.29751           -1            3 # C_R C_R C_R
    8  cosine/periodic         57.28902           -1            3 # C_R C_R H_
    9  cosine/periodic         99.13715           -1            3 # C_3 C_R C_R
    10 cosine/periodic        153.68727           -1            3 # C_R C_R N_R
    11 cosine/periodic        136.53799           -1            3 # C_3 C_R N_R
    12 fourier                 75.49653      0.34375      0.37500      0.28125 # H_ C_3 H_
    13 fourier                121.77380      0.34375      0.37500      0.28125 # C_R C_3 H_
    14 cosine/periodic         36.45900           -1            3 # C_R N_R Zn3f2
    15 cosine/periodic         46.81398           -1            3 # N_R N_R Zn3f2
    16 cosine/periodic        150.51624           -1            3 # C_R N_R N_R
    17 cosine/periodic         42.21907           -1            3 # C_R O_2_M Zn3f2

Dihedral Coeffs

    1       6.73711           -1            2 # X C_R O_2_M X bond order=1.5
    2       1.25000           -1            2 # X C_R C_R X bond order=1.0
    3       3.36856           -1            2 # X C_R C_R X bond order=1.5
    4       0.16667           -1            6 # X C_3 C_R X bond order=1.0
    5       3.36856           -1            2 # X C_R N_R X bond order=1.5
    6       1.25000           -1            2 # X N_R N_R X bond order=1.0

Improper Coeffs

    1      16.66667      1.00000     -1.00000      0.00000            1 # C_R X X X O_2 present=True
    2       2.00000      1.00000     -1.00000      0.00000            1 # C_R X X X O_2 present=False
    3       2.00000      1.00000     -1.00000      0.00000            1 # N_R X X X O_2 present=False

Atoms

    1 1     6      0.00000      5.28450      5.29354     11.98396
    2 1     6      0.00000     12.24695     17.12004      0.16546
    3 1     6      0.00000      1.67795     18.35946      0.16546
    4 1     6      0.00000      8.64040      6.53296     11.98396
    5 1     6      0.00000      8.64040     17.12004     23.47154
    6 1     6      0.00000      1.67795      5.29354     11.65304
    7 1     6      0.00000     12.24695      6.53296     11.65304
    8 1     6      0.00000      5.28450     18.35946     23.47154
    9 1     6      0.00000      8.64040     18.35946     11.65304
   10 1     6      0.00000      1.67795      6.53296     23.47154
   11 1     6      0.00000     12.24695      5.29354     23.47154
   12 1     6      0.00000      5.28450     17.12004     11.65304
   13 1     6      0.00000      5.28450      6.53296      0.16546
   14 1     6      0.00000     12.24695     18.35946     11.98396
   15 1     6      0.00000      1.67795     17.12004     11.98396
   16 1     6      0.00000      8.64040      5.29354      0.16546
   17 1     3      0.00000      4.86675      9.29326     13.25563
   18 1     3      0.00000     11.82920     21.11976      1.43713
   19 1     3      0.00000      2.09570     14.35974      1.43713
   20 1     3      0.00000      9.05815      2.53324     13.25563
   21 1     3      0.00000      9.05815     21.11976     22.19987
   22 1     3      0.00000      2.09570      9.29326     10.38137
   23 1     3      0.00000     11.82920      2.53324     10.38137
   24 1     3      0.00000      4.86675     14.35974     22.19987
   25 1     3      0.00000      9.05815     14.35974     10.38137
   26 1     3      0.00000      2.09570      2.53324     22.19987
   27 1     3      0.00000     11.82920      9.29326     22.19987
   28 1     3      0.00000      4.86675     21.11976     10.38137
   29 1     3      0.00000      4.86675      2.53324      1.43713
   30 1     3      0.00000     11.82920     14.35974     13.25563
   31 1     3      0.00000      2.09570     21.11976     13.25563
   32 1     3      0.00000      9.05815      9.29326      1.43713
   33 1     3      0.00000      4.84865     11.58997     13.29109
   34 1     3      0.00000     11.81110     23.41647      1.47259
   35 1     3      0.00000      2.11380     12.06303      1.47259
   36 1     3      0.00000      9.07625      0.23653     13.29109
   37 1     3      0.00000      9.07625     23.41647     22.16441
   38 1     3      0.00000      2.11380     11.58997     10.34591
   39 1     3      0.00000     11.81110      0.23653     10.34591
   40 1     3      0.00000      4.84865     12.06303     22.16441
   41 1     3      0.00000      9.07625     12.06303     10.34591
   42 1     3      0.00000      2.11380      0.23653     22.16441
   43 1     3      0.00000     11.81110     11.58997     22.16441
   44 1     3      0.00000      4.84865     23.41647     10.34591
   45 1     3      0.00000      4.84865      0.23653      1.47259
   46 1     3      0.00000     11.81110     12.06303     13.29109
   47 1     3      0.00000      2.11380     23.41647     13.29109
   48 1     3      0.00000      9.07625     11.58997      1.47259
   49 1     3      0.00000      6.55306     14.70980     11.53013
   50 1     3      0.00000     13.51551      2.88330     23.34863
   51 1     3      0.00000      0.40939      8.94320     23.34863
   52 1     3      0.00000      7.37184     20.76970     11.53013
   53 1     3      0.00000      7.37184      2.88330      0.28837
   54 1     3      0.00000      0.40939     14.70980     12.10687
   55 1     3      0.00000     13.51551     20.76970     12.10687
   56 1     3      0.00000      6.55306      8.94320      0.28837
   57 1     3      0.00000      7.37184      8.94320     12.10687
   58 1     3      0.00000      0.40939     20.76970      0.28837
   59 1     3      0.00000     13.51551     14.70980      0.28837
   60 1     3      0.00000      6.55306      2.88330     12.10687
   61 1     3      0.00000      6.55306     20.76970     23.34863
   62 1     3      0.00000     13.51551      8.94320     11.53013
   63 1     3      0.00000      0.40939      2.88330     11.53013
   64 1     3      0.00000      7.37184     14.70980     23.34863
   65 1     3      0.00000      6.19937     13.37577     10.78320
   66 1     3      0.00000     13.16182      1.54927     22.60170
   67 1     3      0.00000      0.76308     10.27723     22.60170
   68 1     3      0.00000      7.72553     22.10373     10.78320
   69 1     3      0.00000      7.72553      1.54927      1.03530
   70 1     3      0.00000      0.76308     13.37577     12.85380
   71 1     3      0.00000     13.16182     22.10373     12.85380
   72 1     3      0.00000      6.19937     10.27723      1.03530
   73 1     3      0.00000      7.72553     10.27723     12.85380
   74 1     3      0.00000      0.76308     22.10373      1.03530
   75 1     3      0.00000     13.16182     13.37577      1.03530
   76 1     3      0.00000      6.19937      1.54927     12.85380
   77 1     3      0.00000      6.19937     22.10373     22.60170
   78 1     3      0.00000     13.16182     10.27723     10.78320
   79 1     3      0.00000      0.76308      1.54927     10.78320
   80 1     3      0.00000      7.72553     13.37577     22.60170
   81 1     3      0.00000      6.32608     13.38996     12.34561
   82 1     3      0.00000     13.28853      1.56346      0.52711
   83 1     3      0.00000      0.63637     10.26304      0.52711
   84 1     3      0.00000      7.59882     22.08954     12.34561
   85 1     3      0.00000      7.59882      1.56346     23.10989
   86 1     3      0.00000      0.63637     13.38996     11.29139
   87 1     3      0.00000     13.28853     22.08954     11.29139
   88 1     3      0.00000      6.32608     10.26304     23.10989
   89 1     3      0.00000      7.59882     10.26304     11.29139
   90 1     3      0.00000      0.63637     22.08954     23.10989
   91 1     3      0.00000     13.28853     13.38996     23.10989
   92 1     3      0.00000      6.32608      1.56346     11.29139
   93 1     3      0.00000      6.32608     22.08954      0.52711
   94 1     3      0.00000     13.28853     10.26304     12.34561
   95 1     3      0.00000      0.63637      1.56346     12.34561
   96 1     3      0.00000      7.59882     13.38996      0.52711
   97 1     3      0.00000      5.51426      4.54374     16.00225
   98 1     3      0.00000     12.47671     16.37024      4.18375
   99 1     3      0.00000      1.44819     19.10926      4.18375
  100 1     3      0.00000      8.41064      7.28276     16.00225
  101 1     3      0.00000      8.41064     16.37024     19.45325
  102 1     3      0.00000      1.44819      4.54374      7.63475
  103 1     3      0.00000     12.47671      7.28276      7.63475
  104 1     3      0.00000      5.51426     19.10926     19.45325
  105 1     3      0.00000      8.41064     19.10926      7.63475
  106 1     3      0.00000      1.44819      7.28276     19.45325
  107 1     3      0.00000     12.47671      4.54374     19.45325
  108 1     3      0.00000      5.51426     16.37024      7.63475
  109 1     3      0.00000      5.51426      7.28276      4.18375
  110 1     3      0.00000     12.47671     19.10926     16.00225
  111 1     3      0.00000      1.44819     16.37024     16.00225
  112 1     3      0.00000      8.41064      4.54374      4.18375
  113 1     3      0.00000      5.46274      4.62180     18.33758
  114 1     3      0.00000     12.42519     16.44830      6.51908
  115 1     3      0.00000      1.49971     19.03120      6.51908
  116 1     3      0.00000      8.46216      7.20470     18.33758
  117 1     3      0.00000      8.46216     16.44830     17.11792
  118 1     3      0.00000      1.49971      4.62180      5.29942
  119 1     3      0.00000     12.42519      7.20470      5.29942
  120 1     3      0.00000      5.46274     19.03120     17.11792
  121 1     3      0.00000      8.46216     19.03120      5.29942
  122 1     3      0.00000      1.49971      7.20470     17.11792
  123 1     3      0.00000     12.42519      4.62180     17.11792
  124 1     3      0.00000      5.46274     16.44830      5.29942
  125 1     3      0.00000      5.46274      7.20470      6.51908
  126 1     3      0.00000     12.42519     19.03120     18.33758
  127 1     3      0.00000      1.49971     16.44830     18.33758
  128 1     3      0.00000      8.46216      4.62180      6.51908
  129 1     3      0.00000      4.00341      6.87120     21.31821
  130 1     3      0.00000     10.96586     18.69770      9.49971
  131 1     3      0.00000      2.95904     16.78180      9.49971
  132 1     3      0.00000      9.92149      4.95530     21.31821
  133 1     3      0.00000      9.92149     18.69770     14.13729
  134 1     3      0.00000      2.95904      6.87120      2.31879
  135 1     3      0.00000     10.96586      4.95530      2.31879
  136 1     3      0.00000      4.00341     16.78180     14.13729
  137 1     3      0.00000      9.92149     16.78180      2.31879
  138 1     3      0.00000      2.95904      4.95530     14.13729
  139 1     3      0.00000     10.96586      6.87120     14.13729
  140 1     3      0.00000      4.00341     18.69770      2.31879
  141 1     3      0.00000      4.00341      4.95530      9.49971
  142 1     3      0.00000     10.96586     16.78180     21.31821
  143 1     3      0.00000      2.95904     18.69770     21.31821
  144 1     3      0.00000      9.92149      6.87120      9.49971
  145 1     3      0.00000      4.11481      6.07882     19.96854
  146 1     3      0.00000     11.07726     17.90532      8.15004
  147 1     3      0.00000      2.84764     17.57418      8.15004
  148 1     3      0.00000      9.81009      5.74768     19.96854
  149 1     3      0.00000      9.81009     17.90532     15.48696
  150 1     3      0.00000      2.84764      6.07882      3.66846
  151 1     3      0.00000     11.07726      5.74768      3.66846
  152 1     3      0.00000      4.11481     17.57418     15.48696
  153 1     3      0.00000      9.81009     17.57418      3.66846
  154 1     3      0.00000      2.84764      5.74768     15.48696
  155 1     3      0.00000     11.07726      6.07882     15.48696
  156 1     3      0.00000      4.11481     17.90532      3.66846
  157 1     3      0.00000      4.11481      5.74768      8.15004
  158 1     3      0.00000     11.07726     17.57418     19.96854
  159 1     3      0.00000      2.84764     17.90532     19.96854
  160 1     3      0.00000      9.81009      6.07882      8.15004
  161 1     3      0.00000      4.60079      7.56659     20.04654
  162 1     3      0.00000     11.56324     19.39309      8.22804
  163 1     3      0.00000      2.36166     16.08641      8.22804
  164 1     3      0.00000      9.32411      4.25991     20.04654
  165 1     3      0.00000      9.32411     19.39309     15.40896
  166 1     3      0.00000      2.36166      7.56659      3.59046
  167 1     3      0.00000     11.56324      4.25991      3.59046
  168 1     3      0.00000      4.60079     16.08641     15.40896
  169 1     3      0.00000      9.32411     16.08641      3.59046
  170 1     3      0.00000      2.36166      4.25991     15.40896
  171 1     3      0.00000     11.56324      7.56659     15.40896
  172 1     3      0.00000      4.60079     19.39309      3.59046
  173 1     3      0.00000      4.60079      4.25991      8.22804
  174 1     3      0.00000     11.56324     16.08641     20.04654
  175 1     3      0.00000      2.36166     19.39309     20.04654
  176 1     3      0.00000      9.32411      7.56659      8.22804
  177 1     2      0.00000      6.96245      5.91325     14.26729
  178 1     2      0.00000      0.00000     17.73975      2.44879
  179 1     2      0.00000      6.96245     17.73975     21.18821
  180 1     2      0.00000      0.00000      5.91325      9.36971
  181 1     2      0.00000      6.96245     17.73975      9.36971
  182 1     2      0.00000      0.00000      5.91325     21.18821
  183 1     2      0.00000      6.96245      5.91325      2.44879
  184 1     2      0.00000      0.00000     17.73975     14.26729
  185 1     2      0.00000      6.96245      5.91325     15.73988
  186 1     2      0.00000      0.00000     17.73975      3.92138
  187 1     2      0.00000      6.96245     17.73975     19.71562
  188 1     2      0.00000      0.00000      5.91325      7.89712
  189 1     2      0.00000      6.96245     17.73975      7.89712
  190 1     2      0.00000      0.00000      5.91325     19.71562
  191 1     2      0.00000      6.96245      5.91325      3.92138
  192 1     2      0.00000      0.00000     17.73975     15.73988
  193 1     2      0.00000      6.09632      5.11141     16.45608
  194 1     2      0.00000     13.05877     16.93791      4.63758
  195 1     2      0.00000      0.86613     18.54159      4.63758
  196 1     2      0.00000      7.82858      6.71509     16.45608
  197 1     2      0.00000      7.82858     16.93791     18.99942
  198 1     2      0.00000      0.86613      5.11141      7.18092
  199 1     2      0.00000     13.05877      6.71509      7.18092
  200 1     2      0.00000      6.09632     18.54159     18.99942
  201 1     2      0.00000      7.82858     18.54159      7.18092
  202 1     2      0.00000      0.86613      6.71509     18.99942
  203 1     2      0.00000     13.05877      5.11141     18.99942
  204 1     2      0.00000      6.09632     16.93791      7.18092
  205 1     2      0.00000      6.09632      6.71509      4.63758
  206 1     2      0.00000     13.05877     18.54159     16.45608
  207 1     2      0.00000      0.86613     16.93791     16.45608
  208 1     2      0.00000      7.82858      5.11141      4.63758
  209 1     2      0.00000      6.08379      5.13980     17.88139
  210 1     2      0.00000     13.04624     16.96630      6.06289
  211 1     2      0.00000      0.87866     18.51320      6.06289
  212 1     2      0.00000      7.84111      6.68670     17.88139
  213 1     2      0.00000      7.84111     16.96630     17.57411
  214 1     2      0.00000      0.87866      5.13980      5.75561
  215 1     2      0.00000     13.04624      6.68670      5.75561
  216 1     2      0.00000      6.08379     18.51320     17.57411
  217 1     2      0.00000      7.84111     18.51320      5.75561
  218 1     2      0.00000      0.87866      6.68670     17.57411
  219 1     2      0.00000     13.04624      5.13980     17.57411
  220 1     2      0.00000      6.08379     16.96630      5.75561
  221 1     2      0.00000      6.08379      6.68670      6.06289
  222 1     2      0.00000     13.04624     18.51320     17.88139
  223 1     2      0.00000      0.87866     16.96630     17.88139
  224 1     2      0.00000      7.84111      5.13980      6.06289
  225 1     2      0.00000      6.96245      5.91325     18.59523
  226 1     2      0.00000      0.00000     17.73975      6.77673
  227 1     2      0.00000      6.96245     17.73975     16.86027
  228 1     2      0.00000      0.00000      5.91325      5.04177
  229 1     2      0.00000      6.96245     17.73975      5.04177
  230 1     2      0.00000      0.00000      5.91325     16.86027
  231 1     2      0.00000      6.96245      5.91325      6.77673
  232 1     2      0.00000      0.00000     17.73975     18.59523
  233 1     2      0.00000      6.96245      5.91325     20.03945
  234 1     2      0.00000      0.00000     17.73975      8.22095
  235 1     2      0.00000      6.96245     17.73975     15.41605
  236 1     2      0.00000      0.00000      5.91325      3.59755
  237 1     2      0.00000      6.96245     17.73975      3.59755
  238 1     2      0.00000      0.00000      5.91325     15.41605
  239 1     2      0.00000      6.96245      5.91325      8.22095
  240 1     2      0.00000      0.00000     17.73975     20.03945
  241 1     2      0.00000      5.89998      6.27278     20.91165
  242 1     2      0.00000     12.86243     18.09928      9.09315
  243 1     2      0.00000      1.06247     17.38022      9.09315
  244 1     2      0.00000      8.02492      5.55372     20.91165
  245 1     2      0.00000      8.02492     18.09928     14.54385
  246 1     2      0.00000      1.06247      6.27278      2.72535
  247 1     2      0.00000     12.86243      5.55372      2.72535
  248 1     2      0.00000      5.89998     17.38022     14.54385
  249 1     2      0.00000      8.02492     17.38022      2.72535
  250 1     2      0.00000      1.06247      5.55372     14.54385
  251 1     2      0.00000     12.86243      6.27278     14.54385
  252 1     2      0.00000      5.89998     18.09928      2.72535
  253 1     2      0.00000      5.89998      5.55372      9.09315
  254 1     2      0.00000     12.86243     17.38022     20.91165
  255 1     2      0.00000      1.06247     18.09928     20.91165
  256 1     2      0.00000      8.02492      6.27278      9.09315
  257 1     1      0.00000      4.53255      6.73874     20.52637
  258 1     1      0.00000     11.49500     18.56524      8.70787
  259 1     1      0.00000      2.42990     16.91426      8.70787
  260 1     1      0.00000      9.39235      5.08776     20.52637
  261 1     1      0.00000      9.39235     18.56524     14.92913
  262 1     1      0.00000      2.42990      6.73874      3.11063
  263 1     1      0.00000     11.49500      5.08776      3.11063
  264 1     1      0.00000      4.53255     16.91426     14.92913
  265 1     1      0.00000      9.39235     16.91426      3.11063
  266 1     1      0.00000      2.42990      5.08776     14.92913
  267 1     1      0.00000     11.49500      6.73874     14.92913
  268 1     1      0.00000      4.53255     18.56524      3.11063
  269 1     1      0.00000      4.53255      5.08776      8.70787
  270 1     1      0.00000     11.49500     16.91426     20.52637
  271 1     1      0.00000      2.42990     18.56524     20.52637
  272 1     1      0.00000      9.39235      6.73874      8.70787
  273 1     2      0.00000      3.48122      7.56186     11.81850
  274 1     2      0.00000     10.44368     19.38836      0.00000
  275 1     2      0.00000      3.48122     16.09114      0.00000
  276 1     2      0.00000     10.44368      4.26464     11.81850
  277 1     2      0.00000     10.44368     16.09114     11.81850
  278 1     2      0.00000      3.48122      4.26464      0.00000
  279 1     2      0.00000     10.44368      7.56186      0.00000
  280 1     2      0.00000      3.48122     19.38836     11.81850
  281 1     2      0.00000      3.48122      9.05437     11.81850
  282 1     2      0.00000     10.44368     20.88087      0.00000
  283 1     2      0.00000      3.48122     14.59863      0.00000
  284 1     2      0.00000     10.44368      2.77213     11.81850
  285 1     2      0.00000     10.44368     14.59863     11.81850
  286 1     2      0.00000      3.48122      2.77213      0.00000
  287 1     2      0.00000     10.44368      9.05437      0.00000
  288 1     2      0.00000      3.48122     20.88087     11.81850
  289 1     2      0.00000      4.30279      9.75450     12.67889
  290 1     2      0.00000     11.26524     21.58100      0.86039
  291 1     2      0.00000      2.65966     13.89850      0.86039
  292 1     2      0.00000      9.62211      2.07200     12.67889
  293 1     2      0.00000      9.62211     21.58100     22.77661
  294 1     2      0.00000      2.65966      9.75450     10.95811
  295 1     2      0.00000     11.26524      2.07200     10.95811
  296 1     2      0.00000      4.30279     13.89850     22.77661
  297 1     2      0.00000      9.62211     13.89850     10.95811
  298 1     2      0.00000      2.65966      2.07200     22.77661
  299 1     2      0.00000     11.26524      9.75450     22.77661
  300 1     2      0.00000      4.30279     21.58100     10.95811
  301 1     2      0.00000      4.30279      2.07200      0.86039
  302 1     2      0.00000     11.26524     13.89850     12.67889
  303 1     2      0.00000      2.65966     21.58100     12.67889
  304 1     2      0.00000      9.62211      9.75450      0.86039
  305 1     2      0.00000      4.29862     11.14056     12.69071
  306 1     2      0.00000     11.26107     22.96706      0.87221
  307 1     2      0.00000      2.66383     12.51244      0.87221
  308 1     2      0.00000      9.62628      0.68594     12.69071
  309 1     2      0.00000      9.62628     22.96706     22.76479
  310 1     2      0.00000      2.66383     11.14056     10.94629
  311 1     2      0.00000     11.26107      0.68594     10.94629
  312 1     2      0.00000      4.29862     12.51244     22.76479
  313 1     2      0.00000      9.62628     12.51244     10.94629
  314 1     2      0.00000      2.66383      0.68594     22.76479
  315 1     2      0.00000     11.26107     11.14056     22.76479
  316 1     2      0.00000      4.29862     22.96706     10.94629
  317 1     2      0.00000      4.29862      0.68594      0.87221
  318 1     2      0.00000     11.26107     12.51244     12.69071
  319 1     2      0.00000      2.66383     22.96706     12.69071
  320 1     2      0.00000      9.62628     11.14056      0.87221
  321 1     2      0.00000      3.48122     11.88090     11.81850
  322 1     2      0.00000     10.44368      0.05440      0.00000
  323 1     2      0.00000      3.48122     11.77210      0.00000
  324 1     2      0.00000     10.44368     23.59860     11.81850
  325 1     2      0.00000     10.44368     11.77210     11.81850
  326 1     2      0.00000      3.48122     23.59860      0.00000
  327 1     2      0.00000     10.44368     11.88090      0.00000
  328 1     2      0.00000      3.48122      0.05440     11.81850
  329 1     2      0.00000      3.48122     13.35212     11.81850
  330 1     2      0.00000     10.44368      1.52562      0.00000
  331 1     2      0.00000      3.48122     10.30088      0.00000
  332 1     2      0.00000     10.44368     22.12738     11.81850
  333 1     2      0.00000     10.44368     10.30088     11.81850
  334 1     2      0.00000      3.48122     22.12738      0.00000
  335 1     2      0.00000     10.44368     13.35212      0.00000
  336 1     2      0.00000      3.48122      1.52562     11.81850
  337 1     2      0.00000      4.57851     14.22018     11.69322
  338 1     2      0.00000     11.54096      2.39368     23.51172
  339 1     2      0.00000      2.38394      9.43282     23.51172
  340 1     2      0.00000      9.34639     21.25932     11.69322
  341 1     2      0.00000      9.34639      2.39368      0.12528
  342 1     2      0.00000      2.38394     14.22018     11.94378
  343 1     2      0.00000     11.54096     21.25932     11.94378
  344 1     2      0.00000      4.57851      9.43282      0.12528
  345 1     2      0.00000      9.34639      9.43282     11.94378
  346 1     2      0.00000      2.38394     21.25932      0.12528
  347 1     2      0.00000     11.54096     14.22018      0.12528
  348 1     2      0.00000      4.57851      2.39368     11.94378
  349 1     2      0.00000      4.57851     21.25932     23.51172
  350 1     2      0.00000     11.54096      9.43282     11.69322
  351 1     2      0.00000      2.38394      2.39368     11.69322
  352 1     2      0.00000      9.34639     14.22018     23.51172
  353 1     1      0.00000      6.04758     13.89377     11.57740
  354 1     1      0.00000     13.01003      2.06727     23.39590
  355 1     1      0.00000      0.91487      9.75923     23.39590
  356 1     1      0.00000      7.87732     21.58573     11.57740
  357 1     1      0.00000      7.87732      2.06727      0.24110
  358 1     1      0.00000      0.91487     13.89377     12.05960
  359 1     1      0.00000     13.01003     21.58573     12.05960
  360 1     1      0.00000      6.04758      9.75923      0.24110
  361 1     1      0.00000      7.87732      9.75923     12.05960
  362 1     1      0.00000      0.91487     21.58573      0.24110
  363 1     1      0.00000     13.01003     13.89377      0.24110
  364 1     1      0.00000      6.04758      2.06727     12.05960
  365 1     1      0.00000      6.04758     21.58573     23.39590
  366 1     1      0.00000     13.01003      9.75923     11.57740
  367 1     1      0.00000      0.91487      2.06727     11.57740
  368 1     1      0.00000      7.87732     13.89377     23.39590
  369 1     4      0.00000      6.31076      6.15215     22.18569
  370 1     4      0.00000     13.27321     17.97865     10.36719
  371 1     4      0.00000      0.65169     17.50085     10.36719
  372 1     4      0.00000      7.61414      5.67435     22.18569
  373 1     4      0.00000      7.61414     17.97865     13.26981
  374 1     4      0.00000      0.65169      6.15215      1.45131
  375 1     4      0.00000     13.27321      5.67435      1.45131
  376 1     4      0.00000      6.31076     17.50085     13.26981
  377 1     4      0.00000      7.61414     17.50085      1.45131
  378 1     4      0.00000      0.65169      5.67435     13.26981
  379 1     4      0.00000     13.27321      6.15215     13.26981
  380 1     4      0.00000      6.31076     17.97865      1.45131
  381 1     4      0.00000      6.31076      5.67435     10.36719
  382 1     4      0.00000     13.27321     17.50085     22.18569
  383 1     4      0.00000      0.65169     17.97865     22.18569
  384 1     4      0.00000      7.61414      6.15215     10.36719
  385 1     4      0.00000      4.17886     15.49508     11.76413
  386 1     4      0.00000     11.14131      3.66858     23.58263
  387 1     4      0.00000      2.78359      8.15792     23.58263
  388 1     4      0.00000      9.74604     19.98442     11.76413
  389 1     4      0.00000      9.74604      3.66858      0.05437
  390 1     4      0.00000      2.78359     15.49508     11.87287
  391 1     4      0.00000     11.14131     19.98442     11.87287
  392 1     4      0.00000      4.17886      8.15792      0.05437
  393 1     4      0.00000      9.74604      8.15792     11.87287
  394 1     4      0.00000      2.78359     19.98442      0.05437
  395 1     4      0.00000     11.14131     15.49508      0.05437
  396 1     4      0.00000      4.17886      3.66858     11.87287
  397 1     4      0.00000      4.17886     19.98442     23.58263
  398 1     4      0.00000     11.14131      8.15792     11.76413
  399 1     4      0.00000      2.78359      3.66858     11.76413
  400 1     4      0.00000      9.74604     15.49508     23.58263