Created by Ryther's code on 2024-12-08 14:29:15.016890

    750 atoms
    870 bonds
    1476 angles
    1872 dihedrals
    396 impropers

    7 atom types
    11 bond types
    22 angle types
    6 dihedral types
    3 improper types

0.00000000 24.527 xlo xhi
0.00000000 21.24100508 ylo yhi
0.00000000 71.355 zlo zhi
-12.2635 0.0 0.0 xy xz yz 

Masses 

    1    12.0107
    2    12.0107
    3    12.0107
    4    1.00794
    5    15.9994
    6    15.9994
    7      65.38

Pair Coeffs

    1       0.10500      3.43085 # C_1 C_1
    2       0.10500      3.43085 # C_2 C_2
    3       0.10500      3.43085 # C_R C_R
    4       0.04400      2.57113 # H_ H_
    5       0.06000      3.11815 # O_2_M O_2_M
    6       0.06000      3.11815 # O_3_f O_3_f
    7       0.12400      2.46155 # Zn3f2 Zn3f2

Bond Coeffs

    1     122.16486      2.01487 # O_2_M Zn3f2 bond order=0.5
    2     122.15424      2.01487 # O_3_f Zn3f2 bond order=0.5
    3     357.44038      1.08142 # C_R H_ bond order=1.0
    4     714.55744      1.26901 # C_R O_2_M bond order=1.5
    5     391.66951      1.45800 # C_R C_R bond order=1.0
    6     462.65505      1.37926 # C_R C_R bond order=1.5
    7     520.53955      1.32611 # C_2 C_R bond order=2.0
    8     389.26171      1.46100 # C_2 C_R bond order=1.0
    9     523.75938      1.32339 # C_R C_R bond order=2.0
    10    410.80587      1.43500 # C_1 C_R bond order=1.0
    11    693.14814      1.20538 # C_1 C_1 bond order=3.0

Angle Coeffs

    1  fourier                131.50718      0.34375      0.37500      0.28125 # O_2_M Zn3f2 O_2_M
    2  fourier                131.49574      0.34375      0.37500      0.28125 # O_2_M Zn3f2 O_3_f
    3  cosine/periodic        206.77843           -1            3 # O_2_M C_R O_2_M
    4  cosine/periodic        137.71425           -1            3 # C_R C_R O_2_M
    5  cosine/periodic        102.18328           -1            3 # C_R C_R C_R
    6  cosine/periodic         94.22104           -1            3 # C_R C_R C_R
    7  cosine/periodic         51.62857           -1            3 # C_R C_R H_
    8  cosine/periodic         57.28902           -1            3 # C_R C_R H_
    9  cosine/periodic         61.51171           -1            3 # C_2 C_R H_
    10 cosine/periodic        117.92729           -1            3 # C_2 C_R C_R
    11 cosine/periodic        125.22235           -1            3 # C_R C_2 C_R
    12 cosine/periodic        107.57857           -1            3 # C_R C_2 C_R
    13 cosine/periodic        111.29751           -1            3 # C_R C_R C_R
    14 cosine/periodic        101.85214           -1            3 # C_2 C_R C_R
    15 cosine/periodic        137.23527           -1            3 # C_2 C_R O_2_M
    16 cosine/periodic        108.24400           -1            3 # C_R C_R C_R
    17 cosine/periodic        118.27773           -1            3 # C_R C_R C_R
    18 cosine/periodic         61.73740           -1            3 # C_R C_R H_
    19 cosine/periodic        104.76060           -1            3 # C_1 C_R C_R
    20 cosine/periodic         65.94709            1            1 # C_1 C_1 C_R
    21 cosine/periodic         42.21907           -1            3 # C_R O_2_M Zn3f2
    22 fourier                 42.55738      0.34375      0.37500      0.28125 # Zn3f2 O_3_f Zn3f2

Dihedral Coeffs

    1       6.73711           -1            2 # X C_R O_2_M X bond order=1.5
    2       1.25000           -1            2 # X C_R C_R X bond order=1.0
    3       3.36856           -1            2 # X C_R C_R X bond order=1.5
    4       4.87169           -1            2 # X C_2 C_R X bond order=2.0
    5       1.25000           -1            2 # X C_2 C_R X bond order=1.0
    6       4.87169           -1            2 # X C_R C_R X bond order=2.0

Improper Coeffs

    1      16.66667      1.00000     -1.00000      0.00000            1 # C_R X X X O_2 present=True
    2       2.00000      1.00000     -1.00000      0.00000            1 # C_R X X X O_2 present=False
    3       2.00000      1.00000     -1.00000      0.00000            1 # C_2 X X X O_2 present=False

Atoms

    1 1     7      0.00000      1.13658      1.43164      0.73139
    2 1     7      0.00000      1.13646     15.59238     24.51686
    3 1     7      0.00000     13.40020      8.51191     48.30163
    4 1     7      0.00000     22.71887      0.26849      0.73139
    5 1     7      0.00000     -1.80825     14.42923     24.51686
    6 1     7      0.00000     10.45549      7.34875     48.30163
    7 1     7      0.00000     12.93505     19.54088      0.73139
    8 1     7      0.00000      0.67143     12.46061     24.51686
    9 1     7      0.00000     12.93517      5.38013     48.30163
   10 1     7      0.00000     13.40020      5.64862     11.16064
   11 1     7      0.00000    -11.12692     19.80936     34.94611
   12 1     7      0.00000      1.13646     12.72910     58.73087
   13 1     7      0.00000     10.45549      6.81178     11.16064
   14 1     7      0.00000     10.45537     20.97252     34.94611
   15 1     7      0.00000     -1.80825     13.89225     58.73087
   16 1     7      0.00000     12.93517      8.78039     11.16064
   17 1     7      0.00000      0.67155      1.70013     34.94611
   18 1     7      0.00000      0.67143     15.86087     58.73087
   19 1     7      0.00000      0.00000     14.16067     21.90170
   20 1     7      0.00000     12.26350      7.08034     45.68718
   21 1     7      0.00000      0.00000      0.00000     69.47194
   22 1     7      0.00000     12.26350      7.08034     13.77580
   23 1     7      0.00000      0.00000      0.00000     37.56056
   24 1     7      0.00000      0.00000     14.16067     61.34532
   25 1     4      0.00000      8.05344     19.17001      3.32514
   26 1     4      0.00000     -4.21018     12.08974     27.10991
   27 1     4      0.00000      8.05356      5.00927     50.89538
   28 1     4      0.00000      6.90558     17.48347      4.54531
   29 1     4      0.00000     -5.35805     10.40321     28.33008
   30 1     4      0.00000      6.90570      3.32273     52.11555
   31 1     4      0.00000      9.70901     14.90057      3.95307
   32 1     4      0.00000     -2.55461      7.82030     27.73783
   33 1     4      0.00000      9.70914      0.73982     51.52330
   34 1     4      0.00000     10.95498     16.35345      2.66154
   35 1     4      0.00000     -1.30864      9.27319     26.44630
   36 1     4      0.00000     10.95511      2.19271     50.23178
   37 1     4      0.00000      5.68291     15.70560      4.62380
   38 1     4      0.00000     17.94628      8.62533     28.40857
   39 1     4      0.00000      5.68303      1.54486     52.19404
   40 1     4      0.00000     -8.36493     18.63049      3.32514
   41 1     4      0.00000      3.89844     11.55022     27.10991
   42 1     4      0.00000     16.16219      4.46974     50.89538
   43 1     4      0.00000     -6.33042     18.47967      4.54531
   44 1     4      0.00000      5.93296     11.39941     28.33008
   45 1     4      0.00000     18.19670      4.31893     52.11555
   46 1     4      0.00000      6.76823      0.95797      3.95307
   47 1     4      0.00000      6.76810     15.11871     27.73783
   48 1     4      0.00000     19.03185      8.03823     51.52330
   49 1     4      0.00000      4.88700      1.31057      2.66154
   50 1     4      0.00000      4.88688     15.47131     26.44630
   51 1     4      0.00000     17.15063      8.39083     50.23178
   52 1     4      0.00000     -4.17940     18.30975      4.62380
   53 1     4      0.00000      8.08398     11.22948     28.40857
   54 1     4      0.00000     20.34772      4.14901     52.19404
   55 1     4      0.00000     22.60040      2.75071      4.38833
   56 1     4      0.00000     -1.92672     16.91145     28.17309
   57 1     4      0.00000     10.33703      9.83097     51.95857
   58 1     4      0.00000     21.85601      4.49035      5.77975
   59 1     4      0.00000     -2.67111     18.65109     29.56452
   60 1     4      0.00000      9.59263     11.57061     53.34999
   61 1     4      0.00000     -2.02348      7.00953      2.76144
   62 1     4      0.00000     -2.02360     21.17027     26.54620
   63 1     4      0.00000     10.24015     14.08980     50.33168
   64 1     4      0.00000     -1.43728      5.22104      1.39856
   65 1     4      0.00000     -1.43740     19.38178     25.18332
   66 1     4      0.00000     10.82634     12.30130     48.96880
   67 1     4      0.00000     -1.50351      8.46666      4.62380
   68 1     4      0.00000     10.75987      1.38640     28.40857
   69 1     4      0.00000     10.76012     15.54693     52.19404
   70 1     4      0.00000     10.84474     10.12410      7.50441
   71 1     4      0.00000     -1.41889      3.04384     31.28917
   72 1     4      0.00000     -1.41901     17.20458     55.07393
   73 1     4      0.00000      9.71036     11.63858      6.11298
   74 1     4      0.00000     -2.55326      4.55832     29.89775
   75 1     4      0.00000     -2.55338     18.71906     53.68251
   76 1     4      0.00000      7.20493     12.33741      9.13130
   77 1     4      0.00000     19.46831      5.25715     32.91606
   78 1     4      0.00000     -5.05882     19.41789     56.70082
   79 1     4      0.00000      8.46071     10.93551     10.49418
   80 1     4      0.00000     20.72409      3.85524     34.27894
   81 1     4      0.00000     -3.80303     18.01598     58.06370
   82 1     4      0.00000      5.68303     12.61567      7.26893
   83 1     4      0.00000     17.94641      5.53541     31.05370
   84 1     4      0.00000     -6.58072     19.69615     54.83846
   85 1     4      0.00000     15.60911      6.78714      7.50441
   86 1     4      0.00000     -8.91802     20.94788     31.28917
   87 1     4      0.00000      3.34536     13.86761     55.07393
   88 1     4      0.00000     17.48787      7.01229      6.11298
   89 1     4      0.00000     -7.03925     21.17303     29.89775
   90 1     4      0.00000      5.22413     14.09277     53.68251
   91 1     4      0.00000     19.34579      8.83265      9.13130
   92 1     4      0.00000      7.08217      1.75238     32.91606
   93 1     4      0.00000      7.08205     15.91312     56.70082
   94 1     4      0.00000     17.50382      8.44606     10.49418
   95 1     4      0.00000      5.24019      1.36580     34.27894
   96 1     4      0.00000      5.24007     15.52654     58.06370
   97 1     4      0.00000     -4.17928     10.01152      7.26893
   98 1     4      0.00000      8.08410      2.93126     31.05370
   99 1     4      0.00000      8.08398     17.09200     54.83846
  100 1     4      0.00000     12.57512      2.39875      8.56759
  101 1     4      0.00000     12.57499     16.55949     32.35236
  102 1     4      0.00000      0.31137      9.47922     56.13712
  103 1     4      0.00000     11.68846      0.56140      7.34742
  104 1     4      0.00000     11.68834     14.72214     31.13219
  105 1     4      0.00000     -0.57528      7.64188     54.91695
  106 1     4      0.00000      8.04988      1.69779      7.93967
  107 1     4      0.00000      8.04976     15.85853     31.72443
  108 1     4      0.00000     -4.21386      8.77827     55.50920
  109 1     4      0.00000      8.68513      3.50328      9.23120
  110 1     4      0.00000      8.68501     17.66402     33.01596
  111 1     4      0.00000     -3.57861     10.58376     56.80072
  112 1     4      0.00000     -1.50338     19.85460      7.26893
  113 1     4      0.00000     10.75999     12.77434     31.05370
  114 1     4      0.00000     -1.50363      5.69408     54.83846
  115 1     4      0.00000      1.41876     17.20458     19.39643
  116 1     4      0.00000     13.68251     10.12410     43.18191
  117 1     4      0.00000      1.41889      3.04384     66.96667
  118 1     4      0.00000      2.55314     18.71906     18.00501
  119 1     4      0.00000     14.81688     11.63858     41.79048
  120 1     4      0.00000      2.55326      4.55832     65.57524
  121 1     4      0.00000      5.05857     19.41789     21.02332
  122 1     4      0.00000     17.32232     12.33741     44.80880
  123 1     4      0.00000      5.05869      5.25715     68.59356
  124 1     4      0.00000      3.80279     18.01598     22.38620
  125 1     4      0.00000     16.06653     10.93551     46.17168
  126 1     4      0.00000      3.80291      3.85524     69.95644
  127 1     4      0.00000      6.58047     19.69615     19.16096
  128 1     4      0.00000     -5.68278     12.61567     42.94643
  129 1     4      0.00000      6.58059      5.53541     66.73120
  130 1     4      0.00000     -3.34561     13.86761     19.39643
  131 1     4      0.00000      8.91814      6.78714     43.18191
  132 1     4      0.00000      8.91802     20.94788     66.96667
  133 1     4      0.00000     -5.22437     14.09277     18.00501
  134 1     4      0.00000      7.03937      7.01229     41.79048
  135 1     4      0.00000      7.03925     21.17303     65.57524
  136 1     4      0.00000     -7.08229     15.91312     21.02332
  137 1     4      0.00000      5.18145      8.83265     44.80880
  138 1     4      0.00000     17.44483      1.75238     68.59356
  139 1     4      0.00000     -5.24032     15.52654     22.38620
  140 1     4      0.00000      7.02343      8.44606     46.17168
  141 1     4      0.00000     19.28681      1.36580     69.95644
  142 1     4      0.00000     -8.08422     17.09200     19.16096
  143 1     4      0.00000      4.17952     10.01152     42.94643
  144 1     4      0.00000     16.44290      2.93126     66.73120
  145 1     4      0.00000      1.92647     11.41003     19.39643
  146 1     4      0.00000     14.19022      4.32955     43.18191
  147 1     4      0.00000    -10.33690     18.49029     66.96667
  148 1     4      0.00000      2.67087      9.67039     18.00501
  149 1     4      0.00000     14.93461      2.58992     41.79048
  150 1     4      0.00000     -9.59251     16.75066     65.57524
  151 1     4      0.00000      2.02335      7.15121     21.02332
  152 1     4      0.00000     14.28710      0.07073     44.80880
  153 1     4      0.00000     14.28698     14.23147     68.59356
  154 1     4      0.00000      1.43716      8.93970     22.38620
  155 1     4      0.00000     13.70090      1.85923     46.17168
  156 1     4      0.00000     13.70078     16.01997     69.95644
  157 1     4      0.00000      1.50338      5.69408     19.16096
  158 1     4      0.00000      1.50363     19.85460     42.94643
  159 1     4      0.00000     13.76701     12.77434     66.73120
  160 1     4      0.00000     16.47368      5.00927     15.21788
  161 1     4      0.00000     -8.05344     19.17001     39.00264
  162 1     4      0.00000      4.20994     12.08974     62.78741
  163 1     4      0.00000     17.62155      3.32273     16.43805
  164 1     4      0.00000     -6.90558     17.48347     40.22281
  165 1     4      0.00000      5.35780     10.40321     64.00758
  166 1     4      0.00000     14.81811      0.73982     15.84580
  167 1     4      0.00000     14.81799     14.90057     39.63057
  168 1     4      0.00000      2.55436      7.82030     63.41533
  169 1     4      0.00000     13.57214      2.19271     14.55428
  170 1     4      0.00000     13.57202     16.35345     38.33904
  171 1     4      0.00000      1.30839      9.27319     62.12380
  172 1     4      0.00000     18.84422      1.54486     16.51654
  173 1     4      0.00000     -5.68291     15.70560     40.30130
  174 1     4      0.00000      6.58047      8.62533     64.08607
  175 1     4      0.00000      8.91814      7.37339     16.28107
  176 1     4      0.00000     21.18152      0.29313     40.06583
  177 1     4      0.00000     -3.34561     14.45387     63.85059
  178 1     4      0.00000      7.03937      7.14824     17.67249
  179 1     4      0.00000     19.30275      0.06797     41.45726
  180 1     4      0.00000     -5.22437     14.22871     65.24202
  181 1     4      0.00000      5.18145      5.32788     14.65418
  182 1     4      0.00000      5.18133     19.48862     38.43894
  183 1     4      0.00000     -7.08229     12.40836     62.22370
  184 1     4      0.00000      7.02343      5.71447     13.29130
  185 1     4      0.00000      7.02331     19.87521     37.07606
  186 1     4      0.00000     -5.24032     12.79494     60.86082
  187 1     4      0.00000      4.17952      4.14901     16.51654
  188 1     4      0.00000      4.17940     18.30975     40.30130
  189 1     4      0.00000     16.44278     11.22948     64.08607
  190 1     4      0.00000     11.95213     11.76178     15.21788
  191 1     4      0.00000     -0.31149      4.68152     39.00264
  192 1     4      0.00000     -0.31162     18.84226     62.78741
  193 1     4      0.00000     12.83878     13.59913     16.43805
  194 1     4      0.00000      0.57516      6.51886     40.22281
  195 1     4      0.00000      0.57504     20.67961     64.00758
  196 1     4      0.00000     16.47736     12.46273     15.84580
  197 1     4      0.00000      4.21374      5.38247     39.63057
  198 1     4      0.00000      4.21362     19.54321     63.41533
  199 1     4      0.00000     15.84211     10.65725     14.55428
  200 1     4      0.00000      3.57849      3.57699     38.33904
  201 1     4      0.00000      3.57837     17.73773     62.12380
  202 1     4      0.00000     13.76713     15.54693     16.51654
  203 1     4      0.00000      1.50351      8.46666     40.30130
  204 1     4      0.00000     13.76688      1.38640     64.08607
  205 1     4      0.00000      9.13990     14.16067      5.94601
  206 1     4      0.00000     -3.12343      7.08034     29.73149
  207 1     4      0.00000      9.13999      0.00000     53.51625
  208 1     4      0.00000      7.69347      0.83520      5.94601
  209 1     4      0.00000      7.69355     14.99572     29.73149
  210 1     4      0.00000     -4.56999      7.91546     53.51625
  211 1     4      0.00000     19.95688      6.24528      5.94601
  212 1     4      0.00000     -4.56987     20.40581     29.73149
  213 1     4      0.00000      7.69351     13.32554     53.51625
  214 1     4      0.00000     15.38701      0.00000     17.83875
  215 1     4      0.00000     15.38693     14.16067     41.62351
  216 1     4      0.00000      3.12360      7.08034     65.40899
  217 1     4      0.00000     -7.69351     13.32554     17.83875
  218 1     4      0.00000      4.56995      6.24528     41.62351
  219 1     4      0.00000      4.57003     20.40581     65.40899
  220 1     4      0.00000      4.56999      7.91546     17.83875
  221 1     4      0.00000     16.83337      0.83520     41.62351
  222 1     4      0.00000     -7.69338     14.99572     65.40899
  223 1     4      0.00000      1.15334     12.16302      5.94601
  224 1     4      0.00000     13.41692      5.08255     29.73149
  225 1     4      0.00000    -11.11012     19.24329     53.51625
  226 1     4      0.00000      1.15326     16.15846      5.94601
  227 1     4      0.00000     13.41700      9.07798     29.73149
  228 1     4      0.00000      1.15338      1.99772     53.51625
  229 1     4      0.00000     -2.30685     14.16067      5.94601
  230 1     4      0.00000      9.95682      7.08034     29.73149
  231 1     4      0.00000     22.22024      0.00000     53.51625
  232 1     4      0.00000     -1.15338      1.99772     17.83875
  233 1     4      0.00000     -1.15342     16.15846     41.62351
  234 1     4      0.00000     11.11016      9.07798     65.40899
  235 1     4      0.00000     11.11012     19.24329     17.83875
  236 1     4      0.00000     -1.15350     12.16302     41.62351
  237 1     4      0.00000     11.11024      5.08255     65.40899
  238 1     4      0.00000      2.30676      0.00000     17.83875
  239 1     4      0.00000      2.30668     14.16067     41.62351
  240 1     4      0.00000     14.57035      7.08034     65.40899
  241 1     3      0.00000     10.44114     18.90874      1.99509
  242 1     3      0.00000     -1.82248     11.82848     25.77985
  243 1     3      0.00000     10.44127      4.74800     49.56532
  244 1     3      0.00000      9.71564     17.94865      2.80782
  245 1     3      0.00000     -2.54799     10.86839     26.59258
  246 1     3      0.00000      9.71576      3.78791     50.37806
  247 1     3      0.00000      8.42257     18.30975      3.42290
  248 1     3      0.00000     -3.84105     11.22948     27.20766
  249 1     3      0.00000      8.42269      4.14901     50.99314
  250 1     3      0.00000      7.74808     17.29018      4.18140
  251 1     3      0.00000     -4.51554     10.20991     27.96617
  252 1     3      0.00000      7.74820      3.12944     51.75164
  253 1     2      0.00000      8.26069     16.09643      4.37906
  254 1     2      0.00000     -4.00293      9.01617     28.16382
  255 1     2      0.00000      8.26082      1.93569     51.94929
  256 1     3      0.00000      9.38526     15.77145      3.82463
  257 1     3      0.00000     -2.87837      8.69118     27.60939
  258 1     3      0.00000      9.38538      1.61071     51.39487
  259 1     3      0.00000     10.14437     16.64870      3.03687
  260 1     3      0.00000     -2.11926      9.56844     26.82163
  261 1     3      0.00000     10.14449      2.48796     50.60711
  262 1     3      0.00000      7.55186     15.09938      5.15825
  263 1     3      0.00000     19.81524      8.01912     28.94302
  264 1     3      0.00000      7.55199      0.93864     52.72849
  265 1     3      0.00000      6.15039     15.08876      5.15540
  266 1     3      0.00000     18.41377      8.00850     28.94016
  267 1     3      0.00000      6.15051      0.92802     52.72564
  268 1     3      0.00000     -9.33252     20.82893      1.99509
  269 1     3      0.00000      2.93085     13.74867     25.77985
  270 1     3      0.00000     15.19460      6.66819     49.56532
  271 1     3      0.00000     -8.13830     20.68067      2.80782
  272 1     3      0.00000      4.12507     13.60040     26.59258
  273 1     3      0.00000     16.38882      6.51993     50.37806
  274 1     3      0.00000     -7.80449     19.38029      3.42290
  275 1     3      0.00000      4.45889     12.30003     27.20766
  276 1     3      0.00000     16.72263      5.21955     50.99314
  277 1     3      0.00000     -6.58427     19.30595      4.18140
  278 1     3      0.00000      5.67910     12.22569     27.96617
  279 1     3      0.00000     17.94285      5.14521     51.75164
  280 1     2      0.00000     -5.80677     20.34676      4.37906
  281 1     2      0.00000      6.45661     13.26649     28.16382
  282 1     2      0.00000     18.72036      6.18602     51.94929
  283 1     3      0.00000      6.17590      0.24215      3.82463
  284 1     3      0.00000      6.17578     14.40289     27.60939
  285 1     3      0.00000     18.43952      7.32241     51.39487
  286 1     3      0.00000      5.03662      0.46093      3.03687
  287 1     3      0.00000      5.03650     14.62167     26.82163
  288 1     3      0.00000     17.30024      7.54119     50.60711
  289 1     3      0.00000     -4.58888     20.23142      5.15825
  290 1     3      0.00000      7.67450     13.15116     28.94302
  291 1     3      0.00000     19.93824      6.07068     52.72849
  292 1     3      0.00000     -3.87895     19.02302      5.15540
  293 1     3      0.00000      8.38443     11.94276     28.94016
  294 1     3      0.00000     20.64818      4.86228     52.72564
  295 1     3      0.00000     -1.10862      2.74434      1.99509
  296 1     3      0.00000     -1.10874     16.90508     25.77985
  297 1     3      0.00000     11.15500      9.82460     49.56532
  298 1     2      0.00000     -1.57733      3.85269      2.80782
  299 1     2      0.00000     -1.57745     18.01343     26.59258
  300 1     2      0.00000     10.68629     10.93296     50.37806
  301 1     3      0.00000     -2.45393      6.03882      4.37906
  302 1     3      0.00000     -2.45405     20.19956     28.16382
  303 1     3      0.00000      9.80970     13.11908     51.94929
  304 1     3      0.00000     -1.95725      3.62796      4.05368
  305 1     3      0.00000     -1.95738     17.78870     27.83844
  306 1     3      0.00000     10.30637     10.70823     51.62392
  307 1     3      0.00000     -2.40610      4.67302      4.89709
  308 1     3      0.00000     -2.40622     18.83376     28.68186
  309 1     3      0.00000      9.85752     11.75329     52.46733
  310 1     3      0.00000     -2.04923      6.14502      3.13177
  311 1     3      0.00000     -2.04935     20.30576     26.91653
  312 1     3      0.00000     10.21439     13.22529     50.70201
  313 1     3      0.00000     -1.64944      5.07023      2.29977
  314 1     3      0.00000     -1.64956     19.23097     26.08453
  315 1     3      0.00000     10.61418     12.15049     49.87001
  316 1     3      0.00000     -2.96298      7.15121      5.15825
  317 1     3      0.00000      9.30039      0.07094     28.94302
  318 1     3      0.00000      9.30064     14.23147     52.72849
  319 1     3      0.00000     -2.27145      8.37023      5.15540
  320 1     3      0.00000      9.99193      1.28997     28.94016
  321 1     3      0.00000      9.99218     15.45049     52.72564
  322 1     3      0.00000     10.44127      9.41253      9.89765
  323 1     3      0.00000     22.70464      2.33226     33.68241
  324 1     3      0.00000     -1.82248     16.49300     57.46718
  325 1     2      0.00000      9.71576     10.37262      9.08492
  326 1     2      0.00000     21.97914      3.29236     32.86968
  327 1     2      0.00000     -2.54799     17.45310     56.65444
  328 1     3      0.00000      8.26082     12.22484      7.51368
  329 1     3      0.00000     20.52419      5.14457     31.29844
  330 1     3      0.00000     -4.00293     19.30531     55.08321
  331 1     3      0.00000     10.10034     10.58928      7.83906
  332 1     3      0.00000     22.36372      3.50901     31.62382
  333 1     3      0.00000     -2.16340     17.66975     55.40858
  334 1     3      0.00000      9.41972     11.50052      6.99564
  335 1     3      0.00000     21.68309      4.42025     30.78041
  336 1     3      0.00000     -2.84403     18.58099     54.56517
  337 1     3      0.00000      7.96649     11.92746      8.76097
  338 1     3      0.00000     20.22987      4.84720     32.54573
  339 1     3      0.00000     -4.29725     19.00794     56.33049
  340 1     3      0.00000      8.69740     11.04384      9.59297
  341 1     3      0.00000     20.96077      3.96357     33.37773
  342 1     3      0.00000     -3.56635     18.12431     57.16249
  343 1     3      0.00000      7.55199     13.22189      6.73448
  344 1     3      0.00000     19.81536      6.14162     30.51925
  345 1     3      0.00000     -4.71176     20.30237     54.30401
  346 1     3      0.00000      6.15051     13.23251      6.73734
  347 1     3      0.00000     18.41389      6.15224     30.52210
  348 1     3      0.00000     -6.11323     20.31299     54.30686
  349 1     3      0.00000     15.19460      7.49234      9.89765
  350 1     3      0.00000      2.93098      0.41208     33.68241
  351 1     3      0.00000      2.93085     14.57282     57.46718
  352 1     2      0.00000     16.38882      7.64060      9.08492
  353 1     2      0.00000      4.12520      0.56034     32.86968
  354 1     2      0.00000      4.12507     14.72108     56.65444
  355 1     3      0.00000     18.72036      7.97451      7.51368
  356 1     3      0.00000      6.45673      0.89425     31.29844
  357 1     3      0.00000      6.45661     15.05499     55.08321
  358 1     3      0.00000     16.38416      7.19921      7.83906
  359 1     3      0.00000      4.12054      0.11895     31.62382
  360 1     3      0.00000      4.12041     14.27969     55.40858
  361 1     3      0.00000     17.51363      7.33303      6.99564
  362 1     3      0.00000      5.25000      0.25277     30.78041
  363 1     3      0.00000      5.24988     14.41351     54.56517
  364 1     3      0.00000     18.60998      8.37809      8.76097
  365 1     3      0.00000      6.34636      1.29783     32.54573
  366 1     3      0.00000      6.34624     15.45857     56.33049
  367 1     3      0.00000     17.47929      8.18692      9.59297
  368 1     3      0.00000      5.21567      1.10666     33.37773
  369 1     3      0.00000      5.21554     15.26740     57.16249
  370 1     3      0.00000     -4.58876      8.08985      6.73448
  371 1     3      0.00000      7.67462      1.00958     30.51925
  372 1     3      0.00000      7.67450     15.17033     54.30401
  373 1     3      0.00000     -3.87882      9.29825      6.73734
  374 1     3      0.00000      8.38455      2.21799     30.52210
  375 1     3      0.00000      8.38443     16.37873     54.30686
  376 1     3      0.00000     11.15500      4.33593      9.89765
  377 1     3      0.00000     11.15488     18.49667     33.68241
  378 1     3      0.00000     -1.10874     11.41640     57.46718
  379 1     3      0.00000     10.68629      3.22757      9.08492
  380 1     3      0.00000     10.68617     17.38831     32.86968
  381 1     3      0.00000     -1.57745     10.30805     56.65444
  382 1     3      0.00000     11.64554      2.28829      8.46984
  383 1     3      0.00000     11.64542     16.44903     32.25460
  384 1     3      0.00000     -0.61820      9.36877     56.03936
  385 1     3      0.00000     11.09982      1.19438      7.71133
  386 1     3      0.00000     11.09969     15.35512     31.49610
  387 1     3      0.00000     -1.16393      8.27486     55.28086
  388 1     2      0.00000      9.80970      1.04145      7.51368
  389 1     2      0.00000      9.80957     15.20219     31.29844
  390 1     2      0.00000     -2.45405      8.12192     55.08321
  391 1     3      0.00000      8.96597      1.85285      8.06811
  392 1     3      0.00000      8.96584     16.01359     31.85287