Created by Ryther's code on 2024-12-05 18:46:52.566508

    276 atoms
    312 bonds
    576 angles
    624 dihedrals
    120 impropers

    5 atom types
    6 bond types
    10 angle types
    3 dihedral types
    2 improper types

0.00000000 16.991 xlo xhi
0.00000000 16.991 ylo yhi
0.00000000 16.991 zlo zhi
0.0 0.0 0.0 xy xz yz 

Masses 

    1    12.0107
    2    12.0107
    3    1.00794
    4    14.0067
    5      65.38

Pair Coeffs

    1       0.10500      3.43085 # C_3 C_3
    2       0.10500      3.43085 # C_R C_R
    3       0.04400      2.57113 # H_ H_
    4       0.06900      3.26069 # N_R N_R
    5       0.12400      2.46155 # Zn3f2 Zn3f2

Bond Coeffs

    1     118.05951      2.10756 # N_R Zn3f2 bond order=0.5
    2     357.44038      1.08142 # C_R H_ bond order=1.0
    3     331.06939      1.10940 # C_3 H_ bond order=1.0
    4     369.94394      1.48600 # C_3 C_R bond order=1.0
    5     663.66675      1.34507 # C_R N_R bond order=1.5
    6     462.65505      1.37926 # C_R C_R bond order=1.5

Angle Coeffs

    1  fourier                140.55920      0.34375      0.37500      0.28125 # N_R Zn3f2 N_R
    2  cosine/periodic        136.53799           -1            3 # C_3 C_R N_R
    3  cosine/periodic        212.40917           -1            3 # N_R C_R N_R
    4  cosine/periodic         79.78069           -1            3 # H_ C_R N_R
    5  cosine/periodic         57.28902           -1            3 # C_R C_R H_
    6  cosine/periodic        153.68727           -1            3 # C_R C_R N_R
    7  fourier                 75.49653      0.34375      0.37500      0.28125 # H_ C_3 H_
    8  fourier                121.77380      0.34375      0.37500      0.28125 # C_R C_3 H_
    9  cosine/periodic         36.45900           -1            3 # C_R N_R Zn3f2
    10 cosine/periodic        120.00052           -1            3 # C_R N_R C_R

Dihedral Coeffs

    1       0.16667           -1            6 # X C_3 C_R X bond order=1.0
    2       3.36856           -1            2 # X C_R N_R X bond order=1.5
    3       3.36856           -1            2 # X C_R C_R X bond order=1.5

Improper Coeffs

    1       2.00000      1.00000     -1.00000      0.00000            1 # C_R X X X O_2 present=False
    2       2.00000      1.00000     -1.00000      0.00000            1 # N_R X X X O_2 present=False

Atoms

    1 1     5      0.00000      8.49550      0.00000     12.74325
    2 1     5      0.00000      0.00000      8.49550      4.24775
    3 1     5      0.00000      8.49550      0.00000      4.24775
    4 1     5      0.00000      0.00000      8.49550     12.74325
    5 1     5      0.00000     12.74325      8.49550      0.00000
    6 1     5      0.00000      8.49550      4.24775      0.00000
    7 1     5      0.00000      4.24775      8.49550      0.00000
    8 1     5      0.00000      8.49550     12.74325      0.00000
    9 1     5      0.00000      0.00000     12.74325      8.49550
   10 1     5      0.00000      0.00000      4.24775      8.49550
   11 1     5      0.00000      4.24775      0.00000      8.49550
   12 1     5      0.00000     12.74325      0.00000      8.49550
   13 1     3      0.00000      6.41750     14.59357     12.29129
   14 1     3      0.00000     14.59357     10.57350      4.69971
   15 1     3      0.00000     10.57350      2.39743     12.29129
   16 1     3      0.00000      9.19723     15.63512      9.75793
   17 1     3      0.00000     10.09605     14.90451     10.81307
   18 1     3      0.00000     10.66355     15.22564      9.38753
   19 1     3      0.00000      2.39743      6.41750      4.69971
   20 1     3      0.00000     15.63512      7.79377      7.23307
   21 1     3      0.00000     14.90451      6.89495      6.17793
   22 1     3      0.00000     15.22564      6.32745      7.60347
   23 1     3      0.00000      6.41750      2.39743      4.69971
   24 1     3      0.00000      2.39743     10.57350     12.29129
   25 1     3      0.00000     10.57350     14.59357      4.69971
   26 1     3      0.00000      9.19723      1.35588      7.23307
   27 1     3      0.00000     10.09605      2.08649      6.17793
   28 1     3      0.00000     10.66355      1.76536      7.60347
   29 1     3      0.00000     14.59357      6.41750     12.29129
   30 1     3      0.00000      1.35588      7.79377      9.75793
   31 1     3      0.00000      2.08649      6.89495     10.81307
   32 1     3      0.00000      1.76536      6.32745      9.38753
   33 1     3      0.00000     12.29129      6.41750     14.59357
   34 1     3      0.00000      6.41750      4.69971      2.39743
   35 1     3      0.00000      7.79377      7.23307     15.63512
   36 1     3      0.00000      6.89495      6.17793     14.90451
   37 1     3      0.00000      6.32745      7.60347     15.22564
   38 1     3      0.00000      4.69971     10.57350     14.59357
   39 1     3      0.00000     10.57350     12.29129      2.39743
   40 1     3      0.00000      9.19723      9.75793     15.63512
   41 1     3      0.00000     10.09605     10.81307     14.90451
   42 1     3      0.00000     10.66355      9.38753     15.22564
   43 1     3      0.00000     12.29129     10.57350      2.39743
   44 1     3      0.00000     10.57350      4.69971     14.59357
   45 1     3      0.00000      9.19723      7.23307      1.35588
   46 1     3      0.00000     10.09605      6.17793      2.08649
   47 1     3      0.00000     10.66355      7.60347      1.76536
   48 1     3      0.00000      4.69971      6.41750      2.39743
   49 1     3      0.00000      6.41750     12.29129     14.59357
   50 1     3      0.00000      7.79377      9.75793      1.35588
   51 1     3      0.00000      6.89495     10.81307      2.08649
   52 1     3      0.00000      6.32745      9.38753      1.76536
   53 1     3      0.00000     14.59357     12.29129      6.41750
   54 1     3      0.00000      1.35588      9.75793      7.79377
   55 1     3      0.00000      2.08649     10.81307      6.89495
   56 1     3      0.00000      1.76536      9.38753      6.32745
   57 1     3      0.00000     14.59357      4.69971     10.57350
   58 1     3      0.00000      4.69971      2.39743      6.41750
   59 1     3      0.00000      7.23307     15.63512      7.79377
   60 1     3      0.00000      6.17793     14.90451      6.89495
   61 1     3      0.00000      7.60347     15.22564      6.32745
   62 1     3      0.00000      2.39743     12.29129     10.57350
   63 1     3      0.00000     15.63512      9.75793      9.19723
   64 1     3      0.00000     14.90451     10.81307     10.09605
   65 1     3      0.00000     15.22564      9.38753     10.66355
   66 1     3      0.00000     12.29129     14.59357      6.41750
   67 1     3      0.00000      2.39743      4.69971      6.41750
   68 1     3      0.00000      4.69971     14.59357     10.57350
   69 1     3      0.00000      7.23307      1.35588      9.19723
   70 1     3      0.00000      6.17793      2.08649     10.09605
   71 1     3      0.00000      7.60347      1.76536     10.66355
   72 1     3      0.00000     12.29129      2.39743     10.57350
   73 1     3      0.00000     14.91300      6.09807      3.79579
   74 1     3      0.00000     16.28927      9.85138      1.26243
   75 1     3      0.00000     15.39045     10.58199      2.31757
   76 1     3      0.00000     14.82295     10.26086      0.89203
   77 1     3      0.00000      6.09807      2.07800     13.19521
   78 1     3      0.00000      2.07800     10.89293      3.79579
   79 1     3      0.00000      0.70173      7.13962      1.26243
   80 1     3      0.00000      1.60055      6.40901      2.31757
   81 1     3      0.00000      2.16805      6.73014      0.89203
   82 1     3      0.00000     10.89293     14.91300     13.19521
   83 1     3      0.00000      7.13962     16.28927     15.72857
   84 1     3      0.00000      6.40901     15.39045     14.67343
   85 1     3      0.00000      6.73014     14.82295     16.09897
   86 1     3      0.00000     14.91300     10.89293     13.19521
   87 1     3      0.00000     16.28927      7.13962     15.72857
   88 1     3      0.00000     15.39045      6.40901     14.67343
   89 1     3      0.00000     14.82295      6.73014     16.09897
   90 1     3      0.00000     10.89293      2.07800      3.79579
   91 1     3      0.00000      2.07800      6.09807     13.19521
   92 1     3      0.00000      6.09807     14.91300      3.79579
   93 1     3      0.00000      3.79579     14.91300      6.09807
   94 1     3      0.00000     14.91300     13.19521     10.89293
   95 1     3      0.00000     16.28927     15.72857      7.13962
   96 1     3      0.00000     15.39045     14.67343      6.40901
   97 1     3      0.00000     14.82295     16.09897      6.73014
   98 1     3      0.00000     13.19521      2.07800      6.09807
   99 1     3      0.00000      2.07800      3.79579     10.89293
  100 1     3      0.00000      0.70173      1.26243      7.13962
  101 1     3      0.00000      1.60055      2.31757      6.40901
  102 1     3      0.00000      2.16805      0.89203      6.73014
  103 1     3      0.00000      3.79579      2.07800     10.89293
  104 1     3      0.00000      2.07800     13.19521      6.09807
  105 1     3      0.00000      0.70173     15.72857      9.85138
  106 1     3      0.00000      1.60055     14.67343     10.58199
  107 1     3      0.00000      2.16805     16.09897     10.26086
  108 1     3      0.00000     13.19521     14.91300     10.89293
  109 1     3      0.00000     14.91300      3.79579      6.09807
  110 1     3      0.00000     16.28927      1.26243      9.85138
  111 1     3      0.00000     15.39045      2.31757     10.58199
  112 1     3      0.00000     14.82295      0.89203     10.26086
  113 1     3      0.00000      6.09807      3.79579     14.91300
  114 1     3      0.00000      9.85138      1.26243     16.28927
  115 1     3      0.00000     10.58199      2.31757     15.39045
  116 1     3      0.00000     10.26086      0.89203     14.82295
  117 1     3      0.00000      6.09807     13.19521      2.07800
  118 1     3      0.00000      9.85138     15.72857      0.70173
  119 1     3      0.00000     10.58199     14.67343      1.60055
  120 1     3      0.00000     10.26086     16.09897      2.16805
  121 1     3      0.00000     13.19521     10.89293     14.91300
  122 1     3      0.00000     10.89293      3.79579      2.07800
  123 1     3      0.00000      7.13962      1.26243      0.70173
  124 1     3      0.00000      6.40901      2.31757      1.60055
  125 1     3      0.00000      6.73014      0.89203      2.16805
  126 1     3      0.00000      3.79579      6.09807     14.91300
  127 1     3      0.00000      1.26243      9.85138     16.28927
  128 1     3      0.00000      2.31757     10.58199     15.39045
  129 1     3      0.00000      0.89203     10.26086     14.82295
  130 1     3      0.00000     10.89293     13.19521     14.91300
  131 1     3      0.00000     13.19521      6.09807      2.07800
  132 1     3      0.00000      3.79579     10.89293      2.07800
  133 1     2      0.00000      6.40646      0.13423     10.58454
  134 1     2      0.00000      6.26135     15.27729     11.68131
  135 1     1      0.00000      6.90005      1.45273     10.09095
  136 1     2      0.00000      0.13423     10.58454      6.40646
  137 1     2      0.00000     15.27729     10.72965      5.30969
  138 1     1      0.00000      1.45273     10.09095      6.90005
  139 1     2      0.00000     10.58454     16.85677     10.58454
  140 1     2      0.00000     10.72965      1.71371     11.68131
  141 1     1      0.00000     10.09095     15.53827     10.09095
  142 1     2      0.00000     16.85677      6.40646      6.40646
  143 1     2      0.00000      1.71371      6.26135      5.30969
  144 1     1      0.00000     15.53827      6.90005      6.90005
  145 1     2      0.00000      6.40646     16.85677      6.40646
  146 1     2      0.00000      6.26135      1.71371      5.30969
  147 1     1      0.00000      6.90005     15.53827      6.90005
  148 1     2      0.00000     16.85677     10.58454     10.58454
  149 1     2      0.00000      1.71371     10.72965     11.68131
  150 1     1      0.00000     15.53827     10.09095     10.09095
  151 1     2      0.00000     10.58454      0.13423      6.40646
  152 1     2      0.00000     10.72965     15.27729      5.30969
  153 1     1      0.00000     10.09095      1.45273      6.90005
  154 1     2      0.00000      0.13423      6.40646     10.58454
  155 1     2      0.00000     15.27729      6.26135     11.68131
  156 1     1      0.00000      1.45273      6.90005     10.09095
  157 1     2      0.00000     10.58454      6.40646      0.13423
  158 1     2      0.00000     11.68131      6.26135     15.27729
  159 1     1      0.00000     10.09095      6.90005      1.45273
  160 1     2      0.00000      6.40646      6.40646     16.85677
  161 1     2      0.00000      6.26135      5.30969      1.71371
  162 1     1      0.00000      6.90005      6.90005     15.53827
  163 1     2      0.00000      6.40646     10.58454      0.13423
  164 1     2      0.00000      5.30969     10.72965     15.27729
  165 1     1      0.00000      6.90005     10.09095      1.45273
  166 1     2      0.00000     10.58454     10.58454     16.85677
  167 1     2      0.00000     10.72965     11.68131      1.71371
  168 1     1      0.00000     10.09095     10.09095     15.53827
  169 1     2      0.00000     11.68131     10.72965      1.71371
  170 1     2      0.00000     10.72965      5.30969     15.27729
  171 1     2      0.00000      5.30969      6.26135      1.71371
  172 1     2      0.00000      6.26135     11.68131     15.27729
  173 1     2      0.00000     15.27729     11.68131      6.26135
  174 1     2      0.00000     15.27729      5.30969     10.72965
  175 1     2      0.00000      5.30969      1.71371      6.26135
  176 1     2      0.00000      1.71371     11.68131     10.72965
  177 1     2      0.00000     11.68131     15.27729      6.26135
  178 1     2      0.00000      1.71371      5.30969      6.26135
  179 1     2      0.00000      5.30969     15.27729     10.72965
  180 1     2      0.00000     11.68131      1.71371     10.72965
  181 1     2      0.00000     14.90196      8.62973      2.08904
  182 1     2      0.00000     14.75685      6.78179      3.18581
  183 1     1      0.00000     15.39555      9.94823      1.59545
  184 1     2      0.00000      8.62973      2.08904     14.90196
  185 1     2      0.00000      6.78179      2.23415     13.80519
  186 1     1      0.00000      9.94823      1.59545     15.39555
  187 1     2      0.00000      2.08904      8.36127      2.08904
  188 1     2      0.00000      2.23415     10.20921      3.18581
  189 1     1      0.00000      1.59545      7.04277      1.59545
  190 1     2      0.00000      8.36127     14.90196     14.90196
  191 1     2      0.00000     10.20921     14.75685     13.80519
  192 1     1      0.00000      7.04277     15.39555     15.39555
  193 1     2      0.00000     14.90196      8.36127     14.90196
  194 1     2      0.00000     14.75685     10.20921     13.80519
  195 1     1      0.00000     15.39555      7.04277     15.39555
  196 1     2      0.00000      8.36127      2.08904      2.08904
  197 1     2      0.00000     10.20921      2.23415      3.18581
  198 1     1      0.00000      7.04277      1.59545      1.59545
  199 1     2      0.00000      2.08904      8.62973     14.90196
  200 1     2      0.00000      2.23415      6.78179     13.80519
  201 1     1      0.00000      1.59545      9.94823     15.39555
  202 1     2      0.00000      8.62973     14.90196      2.08904
  203 1     2      0.00000      6.78179     14.75685      3.18581
  204 1     1      0.00000      9.94823     15.39555      1.59545
  205 1     2      0.00000      2.08904     14.90196      8.62973
  206 1     2      0.00000      3.18581     14.75685      6.78179
  207 1     1      0.00000      1.59545     15.39555      9.94823
  208 1     2      0.00000     14.90196     14.90196      8.36127
  209 1     2      0.00000     14.75685     13.80519     10.20921
  210 1     1      0.00000     15.39555     15.39555      7.04277
  211 1     2      0.00000     14.90196      2.08904      8.62973
  212 1     2      0.00000     13.80519      2.23415      6.78179
  213 1     1      0.00000     15.39555      1.59545      9.94823
  214 1     2      0.00000      2.08904      2.08904      8.36127
  215 1     2      0.00000      2.23415      3.18581     10.20921
  216 1     1      0.00000      1.59545      1.59545      7.04277
  217 1     2      0.00000      3.18581      2.23415     10.20921
  218 1     2      0.00000      2.23415     13.80519      6.78179
  219 1     2      0.00000     13.80519     14.75685     10.20921
  220 1     2      0.00000     14.75685      3.18581      6.78179
  221 1     2      0.00000      6.78179      3.18581     14.75685
  222 1     2      0.00000      6.78179     13.80519      2.23415
  223 1     2      0.00000     13.80519     10.20921     14.75685
  224 1     2      0.00000     10.20921      3.18581      2.23415
  225 1     2      0.00000      3.18581      6.78179     14.75685
  226 1     2      0.00000     10.20921     13.80519     14.75685
  227 1     2      0.00000     13.80519      6.78179      2.23415
  228 1     2      0.00000      3.18581     10.20921      2.23415
  229 1     4      0.00000      6.96172     16.45273     11.60111
  230 1     4      0.00000     16.45273     10.02928      5.38989
  231 1     4      0.00000     10.02928      0.53827     11.60111
  232 1     4      0.00000      0.53827      6.96172      5.38989
  233 1     4      0.00000      6.96172      0.53827      5.38989
  234 1     4      0.00000      0.53827     10.02928     11.60111
  235 1     4      0.00000     10.02928     16.45273      5.38989
  236 1     4      0.00000     16.45273      6.96172     11.60111
  237 1     4      0.00000     11.60111      6.96172     16.45273
  238 1     4      0.00000      6.96172      5.38989      0.53827
  239 1     4      0.00000      5.38989     10.02928     16.45273
  240 1     4      0.00000     10.02928     11.60111      0.53827
  241 1     4      0.00000     11.60111     10.02928      0.53827
  242 1     4      0.00000     10.02928      5.38989     16.45273
  243 1     4      0.00000      5.38989      6.96172      0.53827
  244 1     4      0.00000      6.96172     11.60111     16.45273
  245 1     4      0.00000     16.45273     11.60111      6.96172
  246 1     4      0.00000     16.45273      5.38989     10.02928
  247 1     4      0.00000      5.38989      0.53827      6.96172
  248 1     4      0.00000      0.53827     11.60111     10.02928
  249 1     4      0.00000     11.60111     16.45273      6.96172
  250 1     4      0.00000      0.53827      5.38989      6.96172
  251 1     4      0.00000      5.38989     16.45273     10.02928
  252 1     4      0.00000     11.60111      0.53827     10.02928
  253 1     4      0.00000     15.45722      7.95723      3.10561
  254 1     4      0.00000      7.95723      1.53378     13.88539
  255 1     4      0.00000      1.53378      9.03377      3.10561
  256 1     4      0.00000      9.03377     15.45722     13.88539
  257 1     4      0.00000     15.45722      9.03377     13.88539
  258 1     4      0.00000      9.03377      1.53378      3.10561
  259 1     4      0.00000      1.53378      7.95723     13.88539
  260 1     4      0.00000      7.95723     15.45722      3.10561
  261 1     4      0.00000      3.10561     15.45722      7.95723
  262 1     4      0.00000     15.45722     13.88539      9.03377
  263 1     4      0.00000     13.88539      1.53378      7.95723
  264 1     4      0.00000      1.53378      3.10561      9.03377
  265 1     4      0.00000      3.10561      1.53378      9.03377
  266 1     4      0.00000      1.53378     13.88539      7.95723
  267 1     4      0.00000     13.88539     15.45722      9.03377
  268 1     4      0.00000     15.45722      3.10561      7.95723
  269 1     4      0.00000      7.95723      3.10561     15.45722
  270 1     4      0.00000      7.95723     13.88539      1.53378
  271 1     4      0.00000     13.88539      9.03377     15.45722
  272 1     4      0.00000      9.03377      3.10561      1.53378
  273 1     4      0.00000      3.10561      7.95723     15.45722
  274 1     4      0.00000      9.03377     13.88539     15.45722
  275 1     4      0.00000     13.88539      7.95723      1.53378
  276 1     4      0.00000      3.10561      9.03377      1.53378

Bonds

    1 1     1      231   
    2 1     1      254   
    3 1     1      229   
    4 1     1      256   
    5 1     2      255   
    6 1     2      232   
    7 1     2      230   
    8 1     2      253   
    9 1     3      258   
   10 1     3      233   
   11 1     3      235   
   12 1     3      260   
   13 1     4      259   
   14 1     4      234   
   15 1     4      236   
   16 1     4      257   
   17 1     5      241   
   18 1     5      275   
   19 1     5      237   
   20 1     5      271   
   21 1     6      272   
   22 1     6      238   
   23 1     6      242   
   24 1     6      269   
   25 1     7      276   
   26 1     7      243   
   27 1     7      239   
   28 1     7      273   
   29 1     8      270   
   30 1     8      240   
   31 1     8      244   
   32 1     8      274   
   33 1     9      248   
   34 1     9      266   
   35 1     9      245   
   36 1     9      262   
   37 1     10     250   
   38 1     10     264   
   39 1     10     246   
   40 1     10     268   
   41 1     11     247   
   42 1     11     265   
   43 1     11     251   
   44 1     11     261   
   45 1     12     263   
   46 1     12     252   
   47 1     12     249   
   48 1     12     267   
   49 2     13     134   
   50 2     14     137   
   51 2     15     140   
   52 2     19     143   
   53 2     23     146   
   54 2     24     149   
   55 2     25     152   
   56 2     29     155   
   57 2     33     158   
   58 2     34     161   
   59 2     38     164   
   60 2     39     167   
   61 2     43     169   
   62 2     44     170   
   63 2     48     171   
   64 2     49     172   
   65 2     53     173   
   66 2     57     174   
   67 2     58     175   
   68 2     62     176   
   69 2     66     177   
   70 2     67     178   
   71 2     68     179   
   72 2     72     180   
   73 2     73     182   
   74 2     77     185   
   75 2     78     188   
   76 2     82     191   
   77 2     86     194   
   78 2     90     197   
   79 2     91     200   
   80 2     92     203   
   81 2     93     206   
   82 2     94     209   
   83 2     98     212   
   84 2     99     215   
   85 2     103    217   
   86 2     104    218   
   87 2     108    219   
   88 2     109    220   
   89 2     113    221   
   90 2     117    222   
   91 2     121    223   
   92 2     122    224   
   93 2     126    225   
   94 2     130    226   
   95 2     131    227   
   96 2     132    228   
   97 3     16     141   
   98 3     17     141   
   99 3     18     141   
  100 3     20     144   
  101 3     21     144   
  102 3     22     144   
  103 3     26     153   
  104 3     27     153   
  105 3     28     153   
  106 3     30     156   
  107 3     31     156   
  108 3     32     156   
  109 3     35     162   
  110 3     36     162   
  111 3     37     162   
  112 3     40     168   
  113 3     41     168   
  114 3     42     168   
  115 3     45     159   
  116 3     46     159   
  117 3     47     159   
  118 3     50     165   
  119 3     51     165   
  120 3     52     165   
  121 3     54     138   
  122 3     55     138   
  123 3     56     138   
  124 3     59     147   
  125 3     60     147   
  126 3     61     147   
  127 3     63     150   
  128 3     64     150   
  129 3     65     150   
  130 3     69     135   
  131 3     70     135   
  132 3     71     135   
  133 3     74     183   
  134 3     75     183   
  135 3     76     183   
  136 3     79     189   
  137 3     80     189   
  138 3     81     189   
  139 3     83     192   
  140 3     84     192   
  141 3     85     192   
  142 3     87     195   
  143 3     88     195   
  144 3     89     195   
  145 3     95     210   
  146 3     96     210   
  147 3     97     210   
  148 3     100    216   
  149 3     101    216   
  150 3     102    216   
  151 3     105    207   
  152 3     106    207   
  153 3     107    207   
  154 3     110    213   
  155 3     111    213   
  156 3     112    213   
  157 3     114    186   
  158 3     115    186   
  159 3     116    186   
  160 3     118    204   
  161 3     119    204   
  162 3     120    204   
  163 3     123    198   
  164 3     124    198   
  165 3     125    198   
  166 3     127    201   
  167 3     128    201   
  168 3     129    201   
  169 4     133    135   
  170 4     136    138   
  171 4     139    141   
  172 4     142    144   
  173 4     145    147   
  174 4     148    150   
  175 4     151    153   
  176 4     154    156   
  177 4     157    159   
  178 4     160    162   
  179 4     163    165   
  180 4     166    168   
  181 4     181    183   
  182 4     184    186   
  183 4     187    189   
  184 4     190    192   
  185 4     193    195   
  186 4     196    198   
  187 4     199    201   
  188 4     202    204   
  189 4     205    207   
  190 4     208    210   
  191 4     211    213   
  192 4     214    216   
  193 5     133    229   
  194 5     133    251   
  195 5     134    229   
  196 5     136    230   
  197 5     136    245   
  198 5     137    230   
  199 5     139    231   
  200 5     139    252   
  201 5     140    231   
  202 5     142    250   
  203 5     142    232   
  204 5     143    232   
  205 5     145    233   
  206 5     145    247   
  207 5     146    233   
  208 5     148    234   
  209 5     148    248   
  210 5     149    234   
  211 5     151    235   
  212 5     151    249   
  213 5     152    235   
  214 5     154    236   
  215 5     154    246   
  216 5     155    236   
  217 5     157    237   
  218 5     157    242   
  219 5     158    237   
  220 5     160    238   
  221 5     160    243   
  222 5     161    238   
  223 5     163    239   
  224 5     163    244   
  225 5     164    239   
  226 5     166    241   
  227 5     166    240   
  228 5     167    240   
  229 5     169    241   
  230 5     170    242   
  231 5     171    243   
  232 5     172    244   
  233 5     173    245   
  234 5     174    246   
  235 5     175    247   
  236 5     176    248   
  237 5     177    249   
  238 5     178    250   
  239 5     179    251   
  240 5     180    252   
  241 5     181    253   
  242 5     181    275   
  243 5     182    253   
  244 5     184    269   
  245 5     184    254   
  246 5     185    254   
  247 5     187    255   
  248 5     187    276   
  249 5     188    255   
  250 5     190    256   
  251 5     190    274   
  252 5     191    256   
  253 5     193    271   
  254 5     193    257   
  255 5     194    257   
  256 5     196    272   
  257 5     196    258   
  258 5     197    258   
  259 5     199    259   
  260 5     199    273   
  261 5     200    259   
  262 5     202    270   
  263 5     202    260   
  264 5     203    260   
  265 5     205    261   
  266 5     205    266   
  267 5     206    261   
  268 5     208    267   
  269 5     208    262   
  270 5     209    262   
  271 5     211    263   
  272 5     211    268   
  273 5     212    263   
  274 5     214    264   
  275 5     214    265   
  276 5     215    264   
  277 5     217    265   
  278 5     218    266   
  279 5     219    267   
  280 5     220    268   
  281 5     221    269   
  282 5     222    270   
  283 5     223    271   
  284 5     224    272   
  285 5     225    273   
  286 5     226    274   
  287 5     227    275   
  288 5     228    276   
  289 6     134    179   
  290 6     137    173   
  291 6     140    180   
  292 6     143    178   
  293 6     146    175   
  294 6     149    176   
  295 6     152    177   
  296 6     155    174   
  297 6     158    170   
  298 6     161    171   
  299 6     164    172   
  300 6     167    169   
  301 6     182    227   
  302 6     185    221   
  303 6     188    228   
  304 6     191    226   
  305 6     194    223   
  306 6     197    224   
  307 6     200    225   
  308 6     203    222   
  309 6     206    218   
  310 6     209    219   
  311 6     212    220   
  312 6     215    217   

Angles

    1 1     231    1      254   
    2 1     231    1      229   
    3 1     231    1      256   
    4 1     254    1      229   
    5 1     254    1      256   
    6 1     229    1      256   
    7 1     255    2      232   
    8 1     255    2      230   
    9 1     255    2      253   
   10 1     232    2      230   
   11 1     232    2      253   
   12 1     230    2      253   
   13 1     258    3      233   
   14 1     258    3      235   
   15 1     258    3      260   
   16 1     233    3      235   
   17 1     233    3      260   
   18 1     235    3      260   
   19 1     259    4      234   
   20 1     259    4      236   
   21 1     259    4      257   
   22 1     234    4      236   
   23 1     234    4      257   
   24 1     236    4      257   
   25 1     241    5      275   
   26 1     241    5      237   
   27 1     241    5      271   
   28 1     275    5      237   
   29 1     275    5      271   
   30 1     237    5      271   
   31 1     272    6      238   
   32 1     272    6      242   
   33 1     272    6      269   
   34 1     238    6      242   
   35 1     238    6      269   
   36 1     242    6      269   
   37 1     276    7      243   
   38 1     276    7      239   
   39 1     276    7      273   