Created by Ryther's code on 2024-12-06 13:46:49.290531

    972 atoms
    1088 bonds
    1860 angles
    2512 dihedrals
    504 impropers

    9 atom types
    16 bond types
    34 angle types
    9 dihedral types
    3 improper types

0.00000000 20.3049 xlo xhi
0.00000000 20.3049 ylo yhi
0.00000000 49.641 zlo zhi
0.0 0.0 0.0 xy xz yz 

Masses 

    1    12.0107
    2    12.0107
    3    112.411
    4     35.453
    5    1.00794
    6    14.0067
    7    14.0067
    8    15.9994
    9    15.9994

Pair Coeffs

    1       0.10500      3.43085 # C_2 C_2
    2       0.10500      3.43085 # C_R C_R
    3       0.22800      2.53728 # Cd4f2 Cd4f2
    4       0.22700      3.51638 # Cl_f Cl_f
    5       0.04400      2.57113 # H_ H_
    6       0.06900      3.26069 # N_3 N_3
    7       0.06900      3.26069 # N_R N_R
    8       0.06000      3.11815 # O_1 O_1
    9       0.06000      3.11815 # O_3 O_3

Bond Coeffs

    1     106.99600      2.27629 # Cd4f2 O_3 bond order=0.5
    2     108.10231      2.34604 # Cd4f2 N_R bond order=0.5
    3     107.95291      2.34712 # Cd4f2 N_3 bond order=0.5
    4     559.94651      0.99025 # H_ O_3 bond order=1.0
    5     357.44038      1.08142 # C_R H_ bond order=1.0
    6     663.66675      1.34507 # C_R N_R bond order=1.5
    7     462.65505      1.37926 # C_R C_R bond order=1.5
    8     391.66951      1.45800 # C_R C_R bond order=1.0
    9     572.46041      1.36631 # C_R O_3 bond order=1.0
    10    277.92768      1.75058 # C_R Cl_f bond order=1.0
    11    750.15238      1.29126 # C_R N_3 bond order=2.0
    12    523.75938      1.32339 # C_R C_R bond order=2.0
    13    389.26171      1.46100 # C_2 C_R bond order=1.0
    14    520.53955      1.32611 # C_2 C_R bond order=2.0
    15    817.72006      1.33432 # N_3 O_1 bond order=1.0
    16    783.87044      1.35326 # N_3 O_3 bond order=1.0

Angle Coeffs

    1  cosine/periodic         78.97005            1            4 # O_3 Cd4f2 O_3
    2  cosine/periodic         83.38694            1            4 # N_R Cd4f2 O_3
    3  cosine/periodic         88.25163            1            4 # N_R Cd4f2 N_R
    4  cosine/periodic         83.32639            1            4 # N_3 Cd4f2 O_3
    5  cosine/periodic         88.19060            1            4 # N_3 Cd4f2 N_R
    6  cosine/periodic         79.78069           -1            3 # H_ C_R N_R
    7  cosine/periodic         57.28902           -1            3 # C_R C_R H_
    8  cosine/periodic        153.68727           -1            3 # C_R C_R N_R
    9  cosine/periodic        111.29751           -1            3 # C_R C_R C_R
    10 cosine/periodic        102.18328           -1            3 # C_R C_R C_R
    11 cosine/periodic        135.76992           -1            3 # C_R C_R O_3
    12 cosine/periodic         51.62857           -1            3 # C_R C_R H_
    13 cosine/periodic         91.89380           -1            3 # C_R C_R Cl_f
    14 cosine/periodic         94.22104           -1            3 # C_R C_R C_R
    15 cosine/periodic         85.77639           -1            3 # H_ C_R N_3
    16 cosine/periodic        162.97023           -1            3 # C_R C_R N_3
    17 cosine/periodic        118.27773           -1            3 # C_R C_R C_R
    18 cosine/periodic        108.24400           -1            3 # C_R C_R C_R
    19 cosine/periodic        101.85214           -1            3 # C_2 C_R C_R
    20 cosine/periodic        107.88044           -1            3 # C_2 C_R C_R
    21 cosine/periodic         61.73740           -1            3 # C_R C_R H_
    22 cosine/periodic        107.57857           -1            3 # C_R C_2 C_R
    23 cosine/periodic         93.64181           -1            3 # C_R C_2 C_R
    24 cosine/periodic         61.51171           -1            3 # C_2 C_R H_
    25 cosine/periodic        117.92729           -1            3 # C_2 C_R C_R
    26 cosine/periodic         36.49488           -1            3 # C_R N_R Cd4f2
    27 cosine/periodic        120.00052           -1            3 # C_R N_R C_R
    28 fourier                 96.33411      0.31751      0.31322      0.27250 # C_R N_3 Cd4f2
    29 fourier                370.21262      0.31751      0.31322      0.27250 # C_R N_3 C_R
    30 fourier                475.17298      0.31751      0.31322      0.27250 # O_1 N_3 O_3
    31 fourier                485.40983      0.31751      0.31322      0.27250 # O_1 N_3 O_1
    32 fourier                465.31623      0.31751      0.31322      0.27250 # O_3 N_3 O_3
    33 fourier                181.60751      0.30023      0.26733      0.26675 # C_R O_3 H_
    34 fourier                140.85314      0.30023      0.26733      0.26675 # Cd4f2 O_3 N_3

Dihedral Coeffs

    1       3.36856           -1            2 # X C_R N_R X bond order=1.5
    2       3.36856           -1            2 # X C_R C_R X bond order=1.5
    3       1.25000           -1            2 # X C_R C_R X bond order=1.0
    4       0.23717           -1            2 # X C_R O_3 X bond order=1.0
    5       0.25000           -1            6 # X C_R N_3 X bond order=2.0
    6       4.87169           -1            2 # X C_R C_R X bond order=2.0
    7       1.25000           -1            2 # X C_2 C_R X bond order=1.0
    8       4.87169           -1            2 # X C_2 C_R X bond order=2.0
    9       0.50000           -1            6 # X N_3 O_3 X bond order=1.0

Improper Coeffs

    1       2.00000      1.00000     -1.00000      0.00000            1 # C_R X X X O_2 present=False
    2       2.00000      1.00000     -1.00000      0.00000            1 # C_2 X X X O_2 present=False
    3       2.00000      1.00000     -1.00000      0.00000            1 # N_R X X X O_2 present=False

Atoms

    1 1     3      0.00000      4.12571     16.17919      6.20512
    2 1     3      0.00000     16.17919      4.12571     31.02563
    3 1     3      0.00000      6.27239     17.67542      0.89870
    4 1     3      0.00000     14.03251      2.62948     25.71920
    5 1     3      0.00000     17.67542      6.27239     36.33205
    6 1     3      0.00000      2.62948     14.03251     11.51155
    7 1     5      0.00000     14.35556     15.34035      4.39819
    8 1     5      0.00000      5.94934      4.96455     29.21869
    9 1     5      0.00000     15.34035     14.35556     32.83256
   10 1     5      0.00000      4.96455      5.94934      8.01206
   11 1     5      0.00000     14.26622     15.20431      7.80853
   12 1     5      0.00000      6.03868      5.10059     32.62903
   13 1     5      0.00000     15.20431     14.26622     29.42222
   14 1     5      0.00000      5.10059      6.03868      4.60172
   15 1     5      0.00000     13.73220      0.36752     45.87821
   16 1     5      0.00000      6.57270     19.93738     21.05771
   17 1     5      0.00000      0.36752     13.73220     40.99354
   18 1     5      0.00000     19.93738      6.57270     16.17304
   19 1     5      0.00000     11.86415      3.37061     44.20035
   20 1     5      0.00000      8.44075     16.93429     19.37985
   21 1     5      0.00000      3.37061     11.86415     42.67140
   22 1     5      0.00000     16.93429      8.44075     17.85090
   23 1     5      0.00000      6.68640     14.95253      7.63975
   24 1     5      0.00000     13.61850      5.35237     32.46025
   25 1     5      0.00000     14.95253      6.68640     29.59100
   26 1     5      0.00000      5.35237     13.61850      4.77050
   27 1     5      0.00000      8.99101     15.08045      7.76882
   28 1     5      0.00000     11.31389      5.22445     32.58932
   29 1     5      0.00000     15.08045      8.99101     29.46193
   30 1     5      0.00000      5.22445     11.31389      4.64143
   31 1     5      0.00000      8.95243     17.74039      4.76057
   32 1     5      0.00000     11.35247      2.56451     29.58107
   33 1     5      0.00000     17.74039      8.95243     32.47018
   34 1     5      0.00000      2.56451     11.35247      7.64968
   35 1     5      0.00000      6.62143     17.59623      4.71093
   36 1     5      0.00000     13.68347      2.70867     29.53143
   37 1     5      0.00000     17.59623      6.62143     32.51982
   38 1     5      0.00000      2.70867     13.68347      7.69932
   39 1     5      0.00000     10.95246     15.32411      4.62654
   40 1     5      0.00000      9.35244      4.98079     29.44704
   41 1     5      0.00000     15.32411     10.95246     32.60421
   42 1     5      0.00000      4.98079      9.35244      7.78371
   43 1     5      0.00000      9.75853     17.94344      8.27515
   44 1     5      0.00000     10.54637      2.36146     33.09565
   45 1     5      0.00000     17.94344      9.75853     28.95560
   46 1     5      0.00000      2.36146     10.54637      4.13510
   47 1     5      0.00000     13.27737     19.17798      9.85870
   48 1     5      0.00000      7.02753      1.12692     34.67920
   49 1     5      0.00000     19.17798     13.27737     27.37205
   50 1     5      0.00000      1.12692      7.02753      2.55155
   51 1     5      0.00000     14.42460     18.09167      8.18580
   52 1     5      0.00000      5.88030      2.21323     33.00630
   53 1     5      0.00000     18.09167     14.42460     29.04495
   54 1     5      0.00000      2.21323      5.88030      4.22445
   55 1     5      0.00000     14.07739     18.22568      4.31380
   56 1     5      0.00000      6.22751      2.07922     29.13430
   57 1     5      0.00000     18.22568     14.07739     32.91695
   58 1     5      0.00000      2.07922      6.22751      8.09645
   59 1     5      0.00000     15.12918     19.65311      2.86925
   60 1     5      0.00000      5.17572      0.65179     27.68975
   61 1     5      0.00000     19.65311     15.12918     34.36150
   62 1     5      0.00000      0.65179      5.17572      9.54100
   63 1     5      0.00000     18.70284     18.64193      4.49251
   64 1     5      0.00000      1.60206      1.66297     29.31301
   65 1     5      0.00000     18.64193     18.70284     32.73824
   66 1     5      0.00000      1.66297      1.60206      7.91774
   67 1     5      0.00000     17.68963     15.38908      7.62982
   68 1     5      0.00000      2.61527      4.91582     32.45032
   69 1     5      0.00000     15.38908     17.68963     29.60093
   70 1     5      0.00000      4.91582      2.61527      4.78043
   71 1     5      0.00000      1.56754     16.54037      8.22055
   72 1     5      0.00000     18.73736      3.76453     33.04105
   73 1     5      0.00000     16.54037      1.56754     29.01020
   74 1     5      0.00000      3.76453     18.73736      4.18970
   75 1     5      0.00000     19.59626     16.86728      8.22055
   76 1     5      0.00000      0.70864      3.43762     33.04105
   77 1     5      0.00000     16.86728     19.59626     29.01020
   78 1     5      0.00000      3.43762      0.70864      4.18970
   79 1     5      0.00000     19.66123     16.54646      4.21452
   80 1     5      0.00000      0.64367      3.75844     29.03502
   81 1     5      0.00000     16.54646     19.66123     33.01623
   82 1     5      0.00000      3.75844      0.64367      8.19573
   83 1     5      0.00000      1.63454     16.19113      4.32373
   84 1     5      0.00000     18.67036      4.11377     29.14423
   85 1     5      0.00000     16.19113      1.63454     32.90702
   86 1     5      0.00000      4.11377     18.67036      8.08652
   87 1     5      0.00000      7.73820     17.06830     47.81918
   88 1     5      0.00000     12.56670      3.23660     22.99868
   89 1     5      0.00000     17.06830      7.73820     39.05257
   90 1     5      0.00000      3.23660     12.56670     14.23207
   91 1     5      0.00000      8.92806     17.95765     46.10160
   92 1     5      0.00000     11.37684      2.34725     21.28110
   93 1     5      0.00000     17.95765      8.92806     40.77015
   94 1     5      0.00000      2.34725     11.37684     15.94965
   95 1     5      0.00000      9.05599      1.03758     48.09716
   96 1     5      0.00000     11.24891     19.26732     23.27666
   97 1     5      0.00000      1.03758      9.05599     38.77459
   98 1     5      0.00000     19.26732     11.24891     13.95409
   99 1     5      0.00000      7.81333      0.08934      0.08439
  100 1     5      0.00000     12.49157     20.21556     24.90489
  101 1     5      0.00000      0.08934      7.81333     37.14636
  102 1     5      0.00000     20.21556     12.49157     12.32586
  103 1     5      0.00000      7.39911      0.24772     45.08396
  104 1     5      0.00000     12.90579     20.05718     20.26346
  105 1     5      0.00000      0.24772      7.39911     41.78779
  106 1     5      0.00000     20.05718     12.90579     16.96729
  107 1     5      0.00000      7.94937      1.88226     41.38570
  108 1     5      0.00000     12.35553     18.42264     16.56520
  109 1     5      0.00000      1.88226      7.94937     45.48605
  110 1     5      0.00000     18.42264     12.35553     20.66555
  111 1     5      0.00000     10.23976      1.79495     41.64383
  112 1     5      0.00000     10.06514     18.50995     16.82333
  113 1     5      0.00000      1.79495     10.23976     45.22792
  114 1     5      0.00000     18.50995     10.06514     20.40742
  115 1     5      0.00000     11.70577     20.13434     46.77175
  116 1     5      0.00000      8.59913      0.17056     21.95125
  117 1     5      0.00000     20.13434     11.70577     40.10000
  118 1     5      0.00000      0.17056      8.59913     15.27950
  119 1     5      0.00000     12.40629     19.38509     42.43809
  120 1     5      0.00000      7.89861      0.91981     17.61759
  121 1     5      0.00000     19.38509     12.40629     44.43366
  122 1     5      0.00000      0.91981      7.89861     19.61316
  123 1     5      0.00000     13.21037     17.99826     40.77512
  124 1     5      0.00000      7.09453      2.30664     15.95462
  125 1     5      0.00000     17.99826     13.21037     46.09663
  126 1     5      0.00000      2.30664      7.09453     21.27613
  127 1     5      0.00000     14.71090      0.94215     38.82919
  128 1     5      0.00000      5.59400     19.36275     14.00869
  129 1     5      0.00000      0.94215     14.71090     48.04256
  130 1     5      0.00000     19.36275      5.59400     23.22206
  131 1     5      0.00000     13.77078      4.53611     41.62894
  132 1     5      0.00000      6.53412     15.76879     16.80844
  133 1     5      0.00000      4.53611     13.77078     45.24281
  134 1     5      0.00000     15.76879      6.53412     20.42231
  135 1     5      0.00000     16.47946      2.31273     39.53409
  136 1     5      0.00000      3.82544     17.99217     14.71359
  137 1     5      0.00000      2.31273     16.47946     47.33766
  138 1     5      0.00000     17.99217      3.82544     22.51716
  139 1     5      0.00000     13.48855      4.99297     39.18164
  140 1     5      0.00000      6.81635     15.31193     14.36114
  141 1     5      0.00000      4.99297     13.48855     47.69011
  142 1     5      0.00000     15.31193      6.81635     22.86961
  143 1     5      0.00000     14.78400      6.17878     37.67255
  144 1     5      0.00000      5.52090     14.12612     12.85205
  145 1     5      0.00000      6.17878     14.78400     49.19920
  146 1     5      0.00000     14.12612      5.52090     24.37870
  147 1     5      0.00000     17.75095      3.57569     38.04486
  148 1     5      0.00000      2.55395     16.72921     13.22436
  149 1     5      0.00000     16.72921      2.55395     24.00639
  150 1     5      0.00000      3.57569     17.75095     48.82689
  151 1     2      0.00000      7.15139     15.51497      7.03016
  152 1     2      0.00000     13.15351      4.78993     31.85066
  153 1     2      0.00000     15.51497      7.15139     30.20059
  154 1     2      0.00000      4.78993     13.15351      5.38009
  155 1     2      0.00000      8.53009     15.58401      7.11157
  156 1     2      0.00000     11.77481      4.72089     31.93207
  157 1     2      0.00000     15.58401      8.53009     30.11918
  158 1     2      0.00000      4.72089     11.77481      5.29868
  159 1     2      0.00000      9.23873     16.38605      6.23193
  160 1     2      0.00000     11.06617      3.91885     31.05243
  161 1     2      0.00000     16.38605      9.23873     30.99882
  162 1     2      0.00000      3.91885     11.06617      6.17832
  163 1     2      0.00000      8.50775     17.14546      5.35180
  164 1     2      0.00000     11.79715      3.15944     30.17230
  165 1     2      0.00000     17.14546      8.50775     31.87895
  166 1     2      0.00000      3.15944     11.79715      7.05845
  167 1     2      0.00000      7.10672     17.05002      5.32102
  168 1     2      0.00000     13.19819      3.25488     30.14152
  169 1     2      0.00000     17.05002      7.10672     31.90973
  170 1     2      0.00000      3.25488     13.19819      7.08923
  171 1     2      0.00000     10.71083     16.46118      6.28405
  172 1     2      0.00000      9.59407      3.84372     31.10455
  173 1     2      0.00000     16.46118     10.71083     30.94670
  174 1     2      0.00000      3.84372      9.59407      6.12620
  175 1     2      0.00000     11.42354     15.81143      5.29123
  176 1     2      0.00000      8.88136      4.49347     30.11173
  177 1     2      0.00000     15.81143     11.42354     31.93952
  178 1     2      0.00000      4.49347      8.88136      7.11902
  179 1     2      0.00000     12.84488     15.85407      5.24259
  180 1     2      0.00000      7.46002      4.45083     30.06309
  181 1     2      0.00000     15.85407     12.84488     31.98816
  182 1     2      0.00000      4.45083      7.46002      7.16766
  183 1     2      0.00000     13.55149     16.57895      6.19569
  184 1     2      0.00000      6.75341      3.72595     31.01619
  185 1     2      0.00000     16.57895     13.55149     31.03506
  186 1     2      0.00000      3.72595      6.75341      6.21456
  187 1     2      0.00000     12.81239     17.28962      7.22674
  188 1     2      0.00000      7.49251      3.01528     32.04724
  189 1     2      0.00000     17.28962     12.81239     30.00401
  190 1     2      0.00000      3.01528      7.49251      5.18351
  191 1     2      0.00000     11.41541     17.24292      7.25205
  192 1     2      0.00000      8.88949      3.06198     32.07255
  193 1     2      0.00000     17.24292     11.41541     29.97870
  194 1     2      0.00000      3.06198      8.88949      5.15820
  195 1     2      0.00000     10.70677     17.96578      8.25232
  196 1     2      0.00000      9.59813      2.33912     33.07282
  197 1     2      0.00000     17.96578     10.70677     28.97843
  198 1     2      0.00000      2.33912      9.59813      4.15793
  199 1     2      0.00000     11.39308     18.68254      9.16373
  200 1     2      0.00000      8.91182      1.62236     33.98423
  201 1     2      0.00000     18.68254     11.39308     28.06702
  202 1     2      0.00000      1.62236      8.91182      3.24652
  203 1     2      0.00000     12.80833     18.70690      9.17862
  204 1     2      0.00000      7.49657      1.59800     33.99912
  205 1     2      0.00000     18.70690     12.80833     28.05213
  206 1     2      0.00000      1.59800      7.49657      3.23163
  207 1     2      0.00000     13.47433     18.04496      8.20615
  208 1     2      0.00000      6.83057      2.25994     33.02665
  209 1     2      0.00000     18.04496     13.47433     29.02460
  210 1     2      0.00000      2.25994      6.83057      4.20410
  211 1     2      0.00000     15.03375     16.62768      6.17236
  212 1     2      0.00000      5.27115      3.67722     30.99286
  213 1     2      0.00000     16.62768     15.03375     31.05839
  214 1     2      0.00000      3.67722      5.27115      6.23789
  215 1     2      0.00000     15.71396     17.49064      5.25649
  216 1     2      0.00000      4.59094      2.81426     30.07699
  217 1     2      0.00000     17.49064     15.71396     31.97426
  218 1     2      0.00000      2.81426      4.59094      7.15376
  219 1     2      0.00000     15.02563     18.29065      4.34359
  220 1     2      0.00000      5.27927      2.01425     29.16409
  221 1     2      0.00000     18.29065     15.02563     32.88716
  222 1     2      0.00000      2.01425      5.27927      8.06666
  223 1     2      0.00000     15.63274     19.15361      3.49919
  224 1     2      0.00000      4.67216      1.15129     28.31969
  225 1     2      0.00000     19.15361     15.63274     33.73156
  226 1     2      0.00000      1.15129      4.67216      8.91106
  227 1     2      0.00000     17.02972     19.29372      3.57663
  228 1     2      0.00000      3.27518      1.01118     28.39713
  229 1     2      0.00000     19.29372     17.02972     33.65412
  230 1     2      0.00000      1.01118      3.27518      8.83362
  231 1     2      0.00000     17.76070     18.53025      4.45081
  232 1     2      0.00000      2.54420      1.77465     29.27131
  233 1     2      0.00000     18.53025     17.76070     32.77994
  234 1     2      0.00000      1.77465      2.54420      7.95944
  235 1     2      0.00000     17.14546     17.59013      5.28428
  236 1     2      0.00000      3.15944      2.71477     30.10478
  237 1     2      0.00000     17.59013     17.14546     31.94647
  238 1     2      0.00000      2.71477      3.15944      7.12597
  239 1     2      0.00000     17.85816     16.75357      6.19718
  240 1     2      0.00000      2.44674      3.55133     31.01768
  241 1     2      0.00000     16.75357     17.85816     31.03357
  242 1     2      0.00000      3.55133      2.44674      6.21307
  243 1     2      0.00000     17.19419     15.94950      7.04555
  244 1     2      0.00000      3.11071      4.35540     31.86605
  245 1     2      0.00000     15.94950     17.19419     30.18520
  246 1     2      0.00000      4.35540      3.11071      5.36470
  247 1     2      0.00000     15.76269     15.90889      7.09022
  248 1     2      0.00000      4.54221      4.39601     31.91072
  249 1     2      0.00000     15.90889     15.76269     30.14053
  250 1     2      0.00000      4.39601      4.54221      5.32003
  251 1     2      0.00000      1.10662     16.51601      7.38807
  252 1     2      0.00000     19.19828      3.78889     32.20857
  253 1     2      0.00000     16.51601      1.10662     29.84268
  254 1     2      0.00000      3.78889     19.19828      5.02218
  255 1     2      0.00000     20.04703     16.70890      7.39800
  256 1     2      0.00000      0.25787      3.59600     32.21850
  257 1     2      0.00000     16.70890     20.04703     29.83275
  258 1     2      0.00000      3.59600      0.25787      5.01225
  259 1     2      0.00000     19.34245     16.67032      6.23292
  260 1     2      0.00000      0.96245      3.63458     31.05342
  261 1     2      0.00000     16.67032     19.34245     30.99783
  262 1     2      0.00000      3.63458      0.96245      6.17733
  263 1     2      0.00000     20.09170     16.51601      5.06090
  264 1     2      0.00000      0.21320      3.78889     29.88140
  265 1     2      0.00000     16.51601     20.09170     32.16985
  266 1     2      0.00000      3.78889      0.21320      7.34935
  267 1     2      0.00000      1.14926     16.31905      5.13089
  268 1     2      0.00000     19.15564      3.98585     29.95139
  269 1     2      0.00000     16.31905      1.14926     32.09986
  270 1     2      0.00000      3.98585     19.15564      7.27936
  271 1     2      0.00000      7.98186     17.98608     47.86733
  272 1     2      0.00000     12.32304      2.31882     23.04683
  273 1     2      0.00000     17.98608      7.98186     39.00442
  274 1     2      0.00000      2.31882     12.32304     14.18392
  275 1     2      0.00000      8.71486     18.50386     46.84919
  276 1     2      0.00000     11.59004      1.80104     22.02869
  277 1     2      0.00000     18.50386      8.71486     40.02256
  278 1     2      0.00000      1.80104     11.59004     15.20206
  279 1     2      0.00000      9.14533     19.78713     46.88344
  280 1     2      0.00000     11.15957      0.51777     22.06294
  281 1     2      0.00000     19.78713      9.14533     39.98831
  282 1     2      0.00000      0.51777     11.15957     15.16781
  283 1     2      0.00000      8.77781      0.13604     47.98795
  284 1     2      0.00000     11.52709     20.16886     23.16745
  285 1     2      0.00000      0.13604      8.77781     38.88380
  286 1     2      0.00000     20.16886     11.52709     14.06330
  287 1     2      0.00000      8.03059     19.87647     48.96092
  288 1     2      0.00000     12.27431      0.42843     24.14042
  289 1     2      0.00000     19.87647      8.03059     37.91083
  290 1     2      0.00000      0.42843     12.27431     13.09033
  291 1     2      0.00000      9.99813      0.07716     45.81269
  292 1     1      0.00000     10.30677     20.22774     20.99219
  293 1     1      0.00000      0.07716      9.99813     41.05906
  294 1     1      0.00000     20.22774     10.30677     16.23856
  295 1     2      0.00000      9.40726      0.55635     44.60442
  296 1     2      0.00000     10.89764     19.74855     19.78392
  297 1     2      0.00000      0.55635      9.40726     42.26733
  298 1     2      0.00000     19.74855     10.89764     17.44683
  299 1     2      0.00000      7.98186      0.54620     44.39395
  300 1     2      0.00000     12.32304     19.75870     19.57345
  301 1     2      0.00000      0.54620      7.98186     42.47780
  302 1     2      0.00000     19.75870     12.32304     17.65730
  303 1     2      0.00000      7.47829      0.96854     43.20753
  304 1     2      0.00000     12.82661     19.33636     18.38703
  305 1     2      0.00000      0.96854      7.47829     43.66422
  306 1     2      0.00000     19.33636     12.82661     18.84372
  307 1     2      0.00000      8.32704      1.51678     42.17499
  308 1     2      0.00000     11.97786     18.78812     17.35449
  309 1     2      0.00000      1.51678      8.32704     44.69676
  310 1     2      0.00000     18.78812     11.97786     19.87626
  311 1     2      0.00000      9.67325      1.50053     42.34824
  312 1     2      0.00000     10.63165     18.80437     17.52774
  313 1     2      0.00000      1.50053      9.67325     44.52351
  314 1     2      0.00000     18.80437     10.63165     19.70301
  315 1     2      0.00000     10.24585      1.05179     43.56147
  316 1     2      0.00000     10.05905     19.25311     18.74097
  317 1     2      0.00000      1.05179     10.24585     43.31028
  318 1     2      0.00000     19.25311     10.05905     18.48978
  319 1     2      0.00000     11.65298      1.11271     43.76102
  320 1     2      0.00000      8.65192     19.19219     18.94052
  321 1     2      0.00000      1.11271     11.65298     43.11073
  322 1     2      0.00000     19.19219      8.65192     18.29023
  323 1     2      0.00000     12.18091      0.67412     44.95191
  324 1     2      0.00000      8.12399     19.63078     20.13141
  325 1     2      0.00000      0.67412     12.18091     41.91984
  326 1     2      0.00000     19.63078      8.12399     17.09934
  327 1     2      0.00000     11.31998      0.14416     45.96359
  328 1     2      0.00000      8.98492     20.16074     21.14309
  329 1     2      0.00000      0.14416     11.31998     40.90816
  330 1     2      0.00000     20.16074      8.98492     16.08766
  331 1     2      0.00000     12.52609      1.69343     42.69374
  332 1     2      0.00000      7.77881     18.61147     17.87324
  333 1     2      0.00000      1.69343     12.52609     44.17801
  334 1     2      0.00000     18.61147      7.77881     19.35751
  335 1     2      0.00000     13.07433      0.87920     41.68305
  336 1     2      0.00000      7.23057     19.42570     16.86255
  337 1     2      0.00000      0.87920     13.07433     45.18870
  338 1     2      0.00000     19.42570      7.23057     20.36820
  339 1     2      0.00000     12.87940     19.76682     41.70787
  340 1     2      0.00000      7.42550      0.53808     16.88737
  341 1     2      0.00000     19.76682     12.87940     45.16388
  342 1     2      0.00000      0.53808      7.42550     20.34338
  343 1     2      0.00000     13.34641     18.93838     40.72647
  344 1     2      0.00000      6.95849      1.36652     15.90597
  345 1     2      0.00000     18.93838     13.34641     46.14528
  346 1     2      0.00000      1.36652      6.95849     21.32478
  347 1     2      0.00000     14.04693     19.52316     39.62841
  348 1     2      0.00000      6.25797      0.78174     14.80791
  349 1     2      0.00000     19.52316     14.04693     47.24334
  350 1     2      0.00000      0.78174      6.25797     22.42284
  351 1     2      0.00000     14.25404      0.57463     39.57728
  352 1     2      0.00000      6.05086     19.73027     14.75678
  353 1     2      0.00000      0.57463     14.25404     47.29447
  354 1     2      0.00000     19.73027      6.05086     22.47397
  355 1     2      0.00000     13.81748      1.42134     40.58350
  356 1     2      0.00000      6.48742     18.88356     15.76300
  357 1     2      0.00000      1.42134     13.81748     46.28825
  358 1     2      0.00000     18.88356      6.48742     21.46775
  359 1     2      0.00000     14.05708      2.85284     40.62073
  360 1     2      0.00000      6.24782     17.45206     15.80023
  361 1     2      0.00000      2.85284     14.05708     46.25102
  362 1     2      0.00000     17.45206      6.24782     21.43052
  363 1     2      0.00000     13.57789      3.60615     41.62001
  364 1     2      0.00000      6.72701     16.69875     16.79951
  365 1     2      0.00000      3.60615     13.57789     45.25174
  366 1     2      0.00000     16.69875      6.72701     20.43124
  367 1     2      0.00000     12.78193      3.04167     42.67637