Created by Ryther's code on 2024-12-06 14:03:10.771322

    432 atoms
    600 bonds
    1251 angles
    960 dihedrals
    192 impropers

    5 atom types
    7 bond types
    10 angle types
    3 dihedral types
    2 improper types

0.00000000 20.7004 xlo xhi
0.00000000 20.7004 ylo yhi
0.00000000 20.7004 zlo zhi
0.0 0.0 0.0 xy xz yz 

Masses 

    1    12.0107
    2    1.00794
    3    15.9994
    4    15.9994
    5     91.224

Pair Coeffs

    1       0.10500      3.43085 # C_R C_R
    2       0.04400      2.57113 # H_ H_
    3       0.06000      3.11815 # O_2_M O_2_M
    4       0.06000      3.11815 # O_3_f O_3_f
    5       0.06900      2.78317 # Zr8f4 Zr8f4

Bond Coeffs

    1                         zero
    2  harmonic               199.96970      2.41048 # O_3_f Zr8f4 bond order=0.5
    3  harmonic               199.98709      2.41048 # O_2_M Zr8f4 bond order=0.5
    4  harmonic               357.44038      1.08142 # C_R H_ bond order=1.0
    5  harmonic               462.65505      1.37926 # C_R C_R bond order=1.5
    6  harmonic               714.55744      1.26901 # C_R O_2_M bond order=1.5
    7  harmonic               391.66951      1.45800 # C_R C_R bond order=1.0

Angle Coeffs

    1  fourier                 76.79585      0.34375      0.37500      0.28125 # O_2_M Zr8f4 O_3_f
    2  fourier                 76.78917      0.34375      0.37500      0.28125 # O_3_f Zr8f4 O_3_f
    3  fourier                 76.80253      0.34375      0.37500      0.28125 # O_2_M Zr8f4 O_2_M
    4  cosine/periodic         57.28902           -1            3 # C_R C_R H_
    5  cosine/periodic        111.29751           -1            3 # C_R C_R C_R
    6  cosine/periodic        206.77843           -1            3 # O_2_M C_R O_2_M
    7  cosine/periodic        137.71425           -1            3 # C_R C_R O_2_M
    8  cosine/periodic        102.18328           -1            3 # C_R C_R C_R
    9  cosine/periodic         79.39415           -1            3 # C_R O_2_M Zr8f4
    10 fourier                195.28105      0.34375      0.37500      0.28125 # Zr8f4 O_3_f Zr8f4

Dihedral Coeffs

    1       3.36856           -1            2 # X C_R C_R X bond order=1.5
    2       6.73711           -1            2 # X C_R O_2_M X bond order=1.5
    3       1.25000           -1            2 # X C_R C_R X bond order=1.0

Improper Coeffs

    1       2.00000      1.00000     -1.00000      0.00000            1 # C_R X X X O_2 present=False
    2      16.66667      1.00000     -1.00000      0.00000            1 # C_R X X X O_2 present=True

Atoms

    1 1     5      0.00000      2.48177      0.00000      0.00000
    2 1     5      0.00000      2.48177     10.35020     10.35020
    3 1     5      0.00000     12.83197      0.00000     10.35020
    4 1     5      0.00000     12.83197     10.35020      0.00000
    5 1     5      0.00000     18.21863      0.00000      0.00000
    6 1     5      0.00000     18.21863     10.35020     10.35020
    7 1     5      0.00000      7.86843      0.00000     10.35020
    8 1     5      0.00000      7.86843     10.35020      0.00000
    9 1     5      0.00000      0.00000      2.48177      0.00000
   10 1     5      0.00000      0.00000     12.83197     10.35020
   11 1     5      0.00000     10.35020      2.48177     10.35020
   12 1     5      0.00000     10.35020     12.83197      0.00000
   13 1     5      0.00000      0.00000     18.21863      0.00000
   14 1     5      0.00000      0.00000      7.86843     10.35020
   15 1     5      0.00000     10.35020     18.21863     10.35020
   16 1     5      0.00000     10.35020      7.86843      0.00000
   17 1     5      0.00000      0.00000      0.00000      2.48177
   18 1     5      0.00000      0.00000     10.35020     12.83197
   19 1     5      0.00000     10.35020      0.00000     12.83197
   20 1     5      0.00000     10.35020     10.35020      2.48177
   21 1     5      0.00000      0.00000      0.00000     18.21863
   22 1     5      0.00000      0.00000     10.35020      7.86843
   23 1     5      0.00000     10.35020      0.00000      7.86843
   24 1     5      0.00000     10.35020     10.35020     18.21863
   25 1     2      0.00000      5.76962      0.00000      2.70099
   26 1     2      0.00000      5.76962     10.35020     13.05119
   27 1     2      0.00000     16.11982      0.00000     13.05119
   28 1     2      0.00000     16.11982     10.35020      2.70099
   29 1     2      0.00000     14.93078      0.00000      2.70099
   30 1     2      0.00000     14.93078     10.35020     13.05119
   31 1     2      0.00000      4.58058      0.00000     13.05119
   32 1     2      0.00000      4.58058     10.35020      2.70099
   33 1     2      0.00000     14.93078      0.00000     17.99941
   34 1     2      0.00000     14.93078     10.35020      7.64921
   35 1     2      0.00000      4.58058      0.00000      7.64921
   36 1     2      0.00000      4.58058     10.35020     17.99941
   37 1     2      0.00000      5.76962      0.00000     17.99941
   38 1     2      0.00000      5.76962     10.35020      7.64921
   39 1     2      0.00000     16.11982      0.00000      7.64921
   40 1     2      0.00000     16.11982     10.35020     17.99941
   41 1     2      0.00000      2.70099      5.76962      0.00000
   42 1     2      0.00000      2.70099     16.11982     10.35020
   43 1     2      0.00000     13.05119      5.76962     10.35020
   44 1     2      0.00000     13.05119     16.11982      0.00000
   45 1     2      0.00000      2.70099     14.93078      0.00000
   46 1     2      0.00000      2.70099      4.58058     10.35020
   47 1     2      0.00000     13.05119     14.93078     10.35020
   48 1     2      0.00000     13.05119      4.58058      0.00000
   49 1     2      0.00000     17.99941     14.93078      0.00000
   50 1     2      0.00000     17.99941      4.58058     10.35020
   51 1     2      0.00000      7.64921     14.93078     10.35020
   52 1     2      0.00000      7.64921      4.58058      0.00000
   53 1     2      0.00000     17.99941      5.76962      0.00000
   54 1     2      0.00000     17.99941     16.11982     10.35020
   55 1     2      0.00000      7.64921      5.76962     10.35020
   56 1     2      0.00000      7.64921     16.11982      0.00000
   57 1     2      0.00000      0.00000      2.70099      5.76962
   58 1     2      0.00000      0.00000     13.05119     16.11982
   59 1     2      0.00000     10.35020      2.70099     16.11982
   60 1     2      0.00000     10.35020     13.05119      5.76962
   61 1     2      0.00000      0.00000      2.70099     14.93078
   62 1     2      0.00000      0.00000     13.05119      4.58058
   63 1     2      0.00000     10.35020      2.70099      4.58058
   64 1     2      0.00000     10.35020     13.05119     14.93078
   65 1     2      0.00000      0.00000     17.99941     14.93078
   66 1     2      0.00000      0.00000      7.64921      4.58058
   67 1     2      0.00000     10.35020     17.99941      4.58058
   68 1     2      0.00000     10.35020      7.64921     14.93078
   69 1     2      0.00000      0.00000     17.99941      5.76962
   70 1     2      0.00000      0.00000      7.64921     16.11982
   71 1     2      0.00000     10.35020     17.99941     16.11982
   72 1     2      0.00000     10.35020      7.64921      5.76962
   73 1     2      0.00000      0.00000      5.76962     17.99941
   74 1     2      0.00000      0.00000     16.11982      7.64921
   75 1     2      0.00000     10.35020      5.76962      7.64921
   76 1     2      0.00000     10.35020     16.11982     17.99941
   77 1     2      0.00000      0.00000     14.93078     17.99941
   78 1     2      0.00000      0.00000      4.58058      7.64921
   79 1     2      0.00000     10.35020     14.93078      7.64921
   80 1     2      0.00000     10.35020      4.58058     17.99941
   81 1     2      0.00000      0.00000     14.93078      2.70099
   82 1     2      0.00000      0.00000      4.58058     13.05119
   83 1     2      0.00000     10.35020     14.93078     13.05119
   84 1     2      0.00000     10.35020      4.58058      2.70099
   85 1     2      0.00000      0.00000      5.76962      2.70099
   86 1     2      0.00000      0.00000     16.11982     13.05119
   87 1     2      0.00000     10.35020      5.76962     13.05119
   88 1     2      0.00000     10.35020     16.11982      2.70099
   89 1     2      0.00000      5.76962      2.70099      0.00000
   90 1     2      0.00000      5.76962     13.05119     10.35020
   91 1     2      0.00000     16.11982      2.70099     10.35020
   92 1     2      0.00000     16.11982     13.05119      0.00000
   93 1     2      0.00000     14.93078      2.70099      0.00000
   94 1     2      0.00000     14.93078     13.05119     10.35020
   95 1     2      0.00000      4.58058      2.70099     10.35020
   96 1     2      0.00000      4.58058     13.05119      0.00000
   97 1     2      0.00000     14.93078     17.99941      0.00000
   98 1     2      0.00000     14.93078      7.64921     10.35020
   99 1     2      0.00000      4.58058     17.99941     10.35020
  100 1     2      0.00000      4.58058      7.64921      0.00000
  101 1     2      0.00000      5.76962     17.99941      0.00000
  102 1     2      0.00000      5.76962      7.64921     10.35020
  103 1     2      0.00000     16.11982     17.99941     10.35020
  104 1     2      0.00000     16.11982      7.64921      0.00000
  105 1     2      0.00000      2.70099      0.00000     14.93078
  106 1     2      0.00000      2.70099     10.35020      4.58058
  107 1     2      0.00000     13.05119      0.00000      4.58058
  108 1     2      0.00000     13.05119     10.35020     14.93078
  109 1     2      0.00000      2.70099      0.00000      5.76962
  110 1     2      0.00000      2.70099     10.35020     16.11982
  111 1     2      0.00000     13.05119      0.00000     16.11982
  112 1     2      0.00000     13.05119     10.35020      5.76962
  113 1     2      0.00000     17.99941      0.00000      5.76962
  114 1     2      0.00000     17.99941     10.35020     16.11982
  115 1     2      0.00000      7.64921      0.00000     16.11982
  116 1     2      0.00000      7.64921     10.35020      5.76962
  117 1     2      0.00000     17.99941      0.00000     14.93078
  118 1     2      0.00000     17.99941     10.35020      4.58058
  119 1     2      0.00000      7.64921      0.00000      4.58058
  120 1     2      0.00000      7.64921     10.35020     14.93078
  121 1     1      0.00000      5.53736      0.00000      3.81715
  122 1     1      0.00000      5.53736     10.35020     14.16735
  123 1     1      0.00000     15.88756      0.00000     14.16735
  124 1     1      0.00000     15.88756     10.35020      3.81715
  125 1     1      0.00000     15.16304      0.00000      3.81715
  126 1     1      0.00000     15.16304     10.35020     14.16735
  127 1     1      0.00000      4.81284      0.00000     14.16735
  128 1     1      0.00000      4.81284     10.35020      3.81715
  129 1     1      0.00000     15.16304      0.00000     16.88325
  130 1     1      0.00000     15.16304     10.35020      6.53305
  131 1     1      0.00000      4.81284      0.00000      6.53305
  132 1     1      0.00000      4.81284     10.35020     16.88325
  133 1     1      0.00000      5.53736      0.00000     16.88325
  134 1     1      0.00000      5.53736     10.35020      6.53305
  135 1     1      0.00000     15.88756      0.00000      6.53305
  136 1     1      0.00000     15.88756     10.35020     16.88325
  137 1     1      0.00000      3.81715      5.53736      0.00000
  138 1     1      0.00000      3.81715     15.88756     10.35020
  139 1     1      0.00000     14.16735      5.53736     10.35020
  140 1     1      0.00000     14.16735     15.88756      0.00000
  141 1     1      0.00000      3.81715     15.16304      0.00000
  142 1     1      0.00000      3.81715      4.81284     10.35020
  143 1     1      0.00000     14.16735     15.16304     10.35020
  144 1     1      0.00000     14.16735      4.81284      0.00000
  145 1     1      0.00000     16.88325     15.16304      0.00000
  146 1     1      0.00000     16.88325      4.81284     10.35020
  147 1     1      0.00000      6.53305     15.16304     10.35020
  148 1     1      0.00000      6.53305      4.81284      0.00000
  149 1     1      0.00000     16.88325      5.53736      0.00000
  150 1     1      0.00000     16.88325     15.88756     10.35020
  151 1     1      0.00000      6.53305      5.53736     10.35020
  152 1     1      0.00000      6.53305     15.88756      0.00000
  153 1     1      0.00000      0.00000      3.81715      5.53736
  154 1     1      0.00000      0.00000     14.16735     15.88756
  155 1     1      0.00000     10.35020      3.81715     15.88756
  156 1     1      0.00000     10.35020     14.16735      5.53736
  157 1     1      0.00000      0.00000      3.81715     15.16304
  158 1     1      0.00000      0.00000     14.16735      4.81284
  159 1     1      0.00000     10.35020      3.81715      4.81284
  160 1     1      0.00000     10.35020     14.16735     15.16304
  161 1     1      0.00000      0.00000     16.88325     15.16304
  162 1     1      0.00000      0.00000      6.53305      4.81284
  163 1     1      0.00000     10.35020     16.88325      4.81284
  164 1     1      0.00000     10.35020      6.53305     15.16304
  165 1     1      0.00000      0.00000     16.88325      5.53736
  166 1     1      0.00000      0.00000      6.53305     15.88756
  167 1     1      0.00000     10.35020     16.88325     15.88756
  168 1     1      0.00000     10.35020      6.53305      5.53736
  169 1     1      0.00000      0.00000      5.53736     16.88325
  170 1     1      0.00000      0.00000     15.88756      6.53305
  171 1     1      0.00000     10.35020      5.53736      6.53305
  172 1     1      0.00000     10.35020     15.88756     16.88325
  173 1     1      0.00000      0.00000     15.16304     16.88325
  174 1     1      0.00000      0.00000      4.81284      6.53305
  175 1     1      0.00000     10.35020     15.16304      6.53305
  176 1     1      0.00000     10.35020      4.81284     16.88325
  177 1     1      0.00000      0.00000     15.16304      3.81715
  178 1     1      0.00000      0.00000      4.81284     14.16735
  179 1     1      0.00000     10.35020     15.16304     14.16735
  180 1     1      0.00000     10.35020      4.81284      3.81715
  181 1     1      0.00000      0.00000      5.53736      3.81715
  182 1     1      0.00000      0.00000     15.88756     14.16735
  183 1     1      0.00000     10.35020      5.53736     14.16735
  184 1     1      0.00000     10.35020     15.88756      3.81715
  185 1     1      0.00000      5.53736      3.81715      0.00000
  186 1     1      0.00000      5.53736     14.16735     10.35020
  187 1     1      0.00000     15.88756      3.81715     10.35020
  188 1     1      0.00000     15.88756     14.16735      0.00000
  189 1     1      0.00000     15.16304      3.81715      0.00000
  190 1     1      0.00000     15.16304     14.16735     10.35020
  191 1     1      0.00000      4.81284      3.81715     10.35020
  192 1     1      0.00000      4.81284     14.16735      0.00000
  193 1     1      0.00000     15.16304     16.88325      0.00000
  194 1     1      0.00000     15.16304      6.53305     10.35020
  195 1     1      0.00000      4.81284     16.88325     10.35020
  196 1     1      0.00000      4.81284      6.53305      0.00000
  197 1     1      0.00000      5.53736     16.88325      0.00000
  198 1     1      0.00000      5.53736      6.53305     10.35020
  199 1     1      0.00000     15.88756     16.88325     10.35020
  200 1     1      0.00000     15.88756      6.53305      0.00000
  201 1     1      0.00000      3.81715      0.00000     15.16304
  202 1     1      0.00000      3.81715     10.35020      4.81284
  203 1     1      0.00000     14.16735      0.00000      4.81284
  204 1     1      0.00000     14.16735     10.35020     15.16304
  205 1     1      0.00000      3.81715      0.00000      5.53736
  206 1     1      0.00000      3.81715     10.35020     15.88756
  207 1     1      0.00000     14.16735      0.00000     15.88756
  208 1     1      0.00000     14.16735     10.35020      5.53736
  209 1     1      0.00000     16.88325      0.00000      5.53736
  210 1     1      0.00000     16.88325     10.35020     15.88756
  211 1     1      0.00000      6.53305      0.00000     15.88756
  212 1     1      0.00000      6.53305     10.35020      5.53736
  213 1     1      0.00000     16.88325      0.00000     15.16304
  214 1     1      0.00000     16.88325     10.35020      4.81284
  215 1     1      0.00000      6.53305      0.00000      4.81284
  216 1     1      0.00000      6.53305     10.35020     15.16304
  217 1     1      0.00000      3.17958      0.00000     17.52082
  218 1     1      0.00000      3.17958     10.35020      7.17062
  219 1     1      0.00000     13.52978      0.00000      7.17062
  220 1     1      0.00000     13.52978     10.35020     17.52082
  221 1     1      0.00000     17.52082      0.00000     17.52082
  222 1     1      0.00000     17.52082     10.35020      7.17062
  223 1     1      0.00000      7.17062      0.00000      7.17062
  224 1     1      0.00000      7.17062     10.35020     17.52082
  225 1     1      0.00000     17.52082      0.00000      3.17958
  226 1     1      0.00000     17.52082     10.35020     13.52978
  227 1     1      0.00000      7.17062      0.00000     13.52978
  228 1     1      0.00000      7.17062     10.35020      3.17958
  229 1     1      0.00000      3.17958      0.00000      3.17958
  230 1     1      0.00000      3.17958     10.35020     13.52978
  231 1     1      0.00000     13.52978      0.00000     13.52978
  232 1     1      0.00000     13.52978     10.35020      3.17958
  233 1     1      0.00000     17.52082      3.17958      0.00000
  234 1     1      0.00000     17.52082     13.52978     10.35020
  235 1     1      0.00000      7.17062      3.17958     10.35020
  236 1     1      0.00000      7.17062     13.52978      0.00000
  237 1     1      0.00000     17.52082     17.52082      0.00000
  238 1     1      0.00000     17.52082      7.17062     10.35020
  239 1     1      0.00000      7.17062     17.52082     10.35020
  240 1     1      0.00000      7.17062      7.17062      0.00000
  241 1     1      0.00000      3.17958     17.52082      0.00000
  242 1     1      0.00000      3.17958      7.17062     10.35020
  243 1     1      0.00000     13.52978     17.52082     10.35020
  244 1     1      0.00000     13.52978      7.17062      0.00000
  245 1     1      0.00000      3.17958      3.17958      0.00000
  246 1     1      0.00000      3.17958     13.52978     10.35020
  247 1     1      0.00000     13.52978      3.17958     10.35020
  248 1     1      0.00000     13.52978     13.52978      0.00000
  249 1     1      0.00000      0.00000     17.52082      3.17958
  250 1     1      0.00000      0.00000      7.17062     13.52978
  251 1     1      0.00000     10.35020     17.52082     13.52978
  252 1     1      0.00000     10.35020      7.17062      3.17958
  253 1     1      0.00000      0.00000     17.52082     17.52082
  254 1     1      0.00000      0.00000      7.17062      7.17062
  255 1     1      0.00000     10.35020     17.52082      7.17062
  256 1     1      0.00000     10.35020      7.17062     17.52082
  257 1     1      0.00000      0.00000      3.17958     17.52082
  258 1     1      0.00000      0.00000     13.52978      7.17062
  259 1     1      0.00000     10.35020      3.17958      7.17062
  260 1     1      0.00000     10.35020     13.52978     17.52082
  261 1     1      0.00000      0.00000      3.17958      3.17958
  262 1     1      0.00000      0.00000     13.52978     13.52978
  263 1     1      0.00000     10.35020      3.17958     13.52978
  264 1     1      0.00000     10.35020     13.52978      3.17958
  265 1     1      0.00000      4.24358      0.00000      4.24358
  266 1     1      0.00000      4.24358     10.35020     14.59378
  267 1     1      0.00000     14.59378      0.00000     14.59378
  268 1     1      0.00000     14.59378     10.35020      4.24358
  269 1     1      0.00000     16.45682      0.00000      4.24358
  270 1     1      0.00000     16.45682     10.35020     14.59378
  271 1     1      0.00000      6.10662      0.00000     14.59378
  272 1     1      0.00000      6.10662     10.35020      4.24358
  273 1     1      0.00000     16.45682      0.00000     16.45682
  274 1     1      0.00000     16.45682     10.35020      6.10662
  275 1     1      0.00000      6.10662      0.00000      6.10662
  276 1     1      0.00000      6.10662     10.35020     16.45682
  277 1     1      0.00000      4.24358      0.00000     16.45682
  278 1     1      0.00000      4.24358     10.35020      6.10662
  279 1     1      0.00000     14.59378      0.00000      6.10662
  280 1     1      0.00000     14.59378     10.35020     16.45682
  281 1     1      0.00000      4.24358      4.24358      0.00000
  282 1     1      0.00000      4.24358     14.59378     10.35020
  283 1     1      0.00000     14.59378      4.24358     10.35020
  284 1     1      0.00000     14.59378     14.59378      0.00000
  285 1     1      0.00000      4.24358     16.45682      0.00000
  286 1     1      0.00000      4.24358      6.10662     10.35020
  287 1     1      0.00000     14.59378     16.45682     10.35020
  288 1     1      0.00000     14.59378      6.10662      0.00000
  289 1     1      0.00000     16.45682     16.45682      0.00000
  290 1     1      0.00000     16.45682      6.10662     10.35020
  291 1     1      0.00000      6.10662     16.45682     10.35020
  292 1     1      0.00000      6.10662      6.10662      0.00000
  293 1     1      0.00000     16.45682      4.24358      0.00000
  294 1     1      0.00000     16.45682     14.59378     10.35020
  295 1     1      0.00000      6.10662      4.24358     10.35020
  296 1     1      0.00000      6.10662     14.59378      0.00000
  297 1     1      0.00000      0.00000      4.24358      4.24358
  298 1     1      0.00000      0.00000     14.59378     14.59378
  299 1     1      0.00000     10.35020      4.24358     14.59378
  300 1     1      0.00000     10.35020     14.59378      4.24358
  301 1     1      0.00000      0.00000      4.24358     16.45682
  302 1     1      0.00000      0.00000     14.59378      6.10662
  303 1     1      0.00000     10.35020      4.24358      6.10662
  304 1     1      0.00000     10.35020     14.59378     16.45682
  305 1     1      0.00000      0.00000     16.45682     16.45682
  306 1     1      0.00000      0.00000      6.10662      6.10662
  307 1     1      0.00000     10.35020     16.45682      6.10662
  308 1     1      0.00000     10.35020      6.10662     16.45682
  309 1     1      0.00000      0.00000     16.45682      4.24358
  310 1     1      0.00000      0.00000      6.10662     14.59378
  311 1     1      0.00000     10.35020     16.45682     14.59378
  312 1     1      0.00000     10.35020      6.10662      4.24358
  313 1     3      0.00000      3.52880      0.00000      1.97275
  314 1     3      0.00000      3.52880     10.35020     12.32295
  315 1     3      0.00000     13.87900      0.00000     12.32295
  316 1     3      0.00000     13.87900     10.35020      1.97275
  317 1     3      0.00000     17.17160      0.00000      1.97275
  318 1     3      0.00000     17.17160     10.35020     12.32295
  319 1     3      0.00000      6.82140      0.00000     12.32295
  320 1     3      0.00000      6.82140     10.35020      1.97275
  321 1     3      0.00000     17.17160      0.00000     18.72765
  322 1     3      0.00000     17.17160     10.35020      8.37745
  323 1     3      0.00000      6.82140      0.00000      8.37745
  324 1     3      0.00000      6.82140     10.35020     18.72765
  325 1     3      0.00000      3.52880      0.00000     18.72765
  326 1     3      0.00000      3.52880     10.35020      8.37745
  327 1     3      0.00000     13.87900      0.00000      8.37745
  328 1     3      0.00000     13.87900     10.35020     18.72765
  329 1     3      0.00000      1.97275      3.52880      0.00000
  330 1     3      0.00000      1.97275     13.87900     10.35020
  331 1     3      0.00000     12.32295      3.52880     10.35020
  332 1     3      0.00000     12.32295     13.87900      0.00000
  333 1     3      0.00000      1.97275     17.17160      0.00000
  334 1     3      0.00000      1.97275      6.82140     10.35020
  335 1     3      0.00000     12.32295     17.17160     10.35020
  336 1     3      0.00000     12.32295      6.82140      0.00000
  337 1     3      0.00000     18.72765     17.17160      0.00000
  338 1     3      0.00000     18.72765      6.82140     10.35020
  339 1     3      0.00000      8.37745     17.17160     10.35020
  340 1     3      0.00000      8.37745      6.82140      0.00000
  341 1     3      0.00000     18.72765      3.52880      0.00000
  342 1     3      0.00000     18.72765     13.87900     10.35020
  343 1     3      0.00000      8.37745      3.52880     10.35020
  344 1     3      0.00000      8.37745     13.87900      0.00000
  345 1     3      0.00000      0.00000      1.97275      3.52880
  346 1     3      0.00000      0.00000     12.32295     13.87900
  347 1     3      0.00000     10.35020      1.97275     13.87900
  348 1     3      0.00000     10.35020     12.32295      3.52880
  349 1     3      0.00000      0.00000      1.97275     17.17160
  350 1     3      0.00000      0.00000     12.32295      6.82140
  351 1     3      0.00000     10.35020      1.97275      6.82140
  352 1     3      0.00000     10.35020     12.32295     17.17160
  353 1     3      0.00000      0.00000     18.72765     17.17160
  354 1     3      0.00000      0.00000      8.37745      6.82140
  355 1     3      0.00000     10.35020     18.72765      6.82140
  356 1     3      0.00000     10.35020      8.37745     17.17160
  357 1     3      0.00000      0.00000     18.72765      3.52880
  358 1     3      0.00000      0.00000      8.37745     13.87900
  359 1     3      0.00000     10.35020     18.72765     13.87900
  360 1     3      0.00000     10.35020      8.37745      3.52880
  361 1     3      0.00000      0.00000      3.52880     18.72765
  362 1     3      0.00000      0.00000     13.87900      8.37745
  363 1     3      0.00000     10.35020      3.52880      8.37745
  364 1     3      0.00000     10.35020     13.87900     18.72765
  365 1     3      0.00000      0.00000     17.17160     18.72765
  366 1     3      0.00000      0.00000      6.82140      8.37745
  367 1     3      0.00000     10.35020     17.17160      8.37745
  368 1     3      0.00000     10.35020      6.82140     18.72765
  369 1     3      0.00000      0.00000     17.17160      1.97275
  370 1     3      0.00000      0.00000      6.82140     12.32295
  371 1     3      0.00000     10.35020     17.17160     12.32295
  372 1     3      0.00000     10.35020      6.82140      1.97275
  373 1     3      0.00000      0.00000      3.52880      1.97275
  374 1     3      0.00000      0.00000     13.87900     12.32295
  375 1     3      0.00000     10.35020      3.52880     12.32295
  376 1     3      0.00000     10.35020     13.87900      1.97275
  377 1     3      0.00000      3.52880      1.97275      0.00000
  378 1     3      0.00000      3.52880     12.32295     10.35020
  379 1     3      0.00000     13.87900      1.97275     10.35020
  380 1     3      0.00000     13.87900     12.32295      0.00000
  381 1     3      0.00000     17.17160      1.97275      0.00000
  382 1     3      0.00000     17.17160     12.32295     10.35020
  383 1     3      0.00000      6.82140      1.97275     10.35020
  384 1     3      0.00000      6.82140     12.32295      0.00000
  385 1     3      0.00000     17.17160     18.72765      0.00000
  386 1     3      0.00000     17.17160      8.37745     10.35020
  387 1     3      0.00000      6.82140     18.72765     10.35020
  388 1     3      0.00000      6.82140      8.37745      0.00000
  389 1     3      0.00000      3.52880     18.72765      0.00000
  390 1     3      0.00000      3.52880      8.37745     10.35020
  391 1     3      0.00000     13.87900     18.72765     10.35020
  392 1     3      0.00000     13.87900      8.37745      0.00000
  393 1     3      0.00000      1.97275      0.00000     17.17160
  394 1     3      0.00000      1.97275     10.35020      6.82140
  395 1     3      0.00000     12.32295      0.00000      6.82140
  396 1     3      0.00000     12.32295     10.35020     17.17160
  397 1     3      0.00000      1.97275      0.00000      3.52880
  398 1     3      0.00000      1.97275     10.35020     13.87900
  399 1     3      0.00000     12.32295      0.00000     13.87900
  400 1     3      0.00000     12.32295     10.35020      3.52880
  401 1     3      0.00000     18.72765      0.00000      3.52880
  402 1     3      0.00000     18.72765     10.35020     13.87900
  403 1     3      0.00000      8.37745      0.00000     13.87900
  404 1     3      0.00000      8.37745     10.35020      3.52880
  405 1     3      0.00000     18.72765      0.00000     17.17160
  406 1     3      0.00000     18.72765     10.35020      6.82140
  407 1     3      0.00000      8.37745      0.00000      6.82140
  408 1     3      0.00000      8.37745     10.35020     17.17160
  409 1     4      0.00000      1.16129      9.18891      9.18891
  410 1     4      0.00000     11.51149     19.53911      9.18891
  411 1     4      0.00000     11.51149      9.18891     19.53911
  412 1     4      0.00000      9.18891      1.16129      9.18891
  413 1     4      0.00000      9.18891     11.51149     19.53911
  414 1     4      0.00000     19.53911     19.53911      1.16129
  415 1     4      0.00000     19.53911      9.18891     11.51149