Created by Ryther's code on 2024-12-08 14:51:20.560066

    472 atoms
    560 bonds
    984 angles
    1056 dihedrals
    192 impropers

    6 atom types
    8 bond types
    12 angle types
    4 dihedral types
    2 improper types

0.00000000 25.7465 xlo xhi
0.00000000 25.7465 ylo yhi
0.00000000 25.7465 zlo zhi
0.0 0.0 0.0 xy xz yz 

Masses 

    1    12.0107
    2    1.00794
    3    14.0067
    4    15.9994
    5    15.9994
    6      65.38

Pair Coeffs

    1       0.10500      3.43085 # C_R C_R
    2       0.04400      2.57113 # H_ H_
    3       0.06900      3.26069 # N_3 N_3
    4       0.06000      3.11815 # O_2_M O_2_M
    5       0.06000      3.11815 # O_3_f O_3_f
    6       0.12400      2.46155 # Zn3f2 Zn3f2

Bond Coeffs

    1     122.16486      2.01487 # O_2_M Zn3f2 bond order=0.5
    2     122.15424      2.01487 # O_3_f Zn3f2 bond order=0.5
    3     357.44038      1.08142 # C_R H_ bond order=1.0
    4     527.90376      1.04442 # H_ N_3 bond order=1.0
    5     714.55744      1.26901 # C_R O_2_M bond order=1.5
    6     391.66951      1.45800 # C_R C_R bond order=1.0
    7     462.65505      1.37926 # C_R C_R bond order=1.5
    8     560.26893      1.42319 # C_R N_3 bond order=1.0

Angle Coeffs

    1  fourier                131.49574      0.34375      0.37500      0.28125 # O_2_M Zn3f2 O_3_f
    2  fourier                131.50718      0.34375      0.37500      0.28125 # O_2_M Zn3f2 O_2_M
    3  cosine/periodic        137.71425           -1            3 # C_R C_R O_2_M
    4  cosine/periodic        206.77843           -1            3 # O_2_M C_R O_2_M
    5  cosine/periodic        102.18328           -1            3 # C_R C_R C_R
    6  cosine/periodic        111.29751           -1            3 # C_R C_R C_R
    7  cosine/periodic         57.28902           -1            3 # C_R C_R H_
    8  cosine/periodic        141.17366           -1            3 # C_R C_R N_3
    9  fourier                 97.01717      0.31751      0.31322      0.27250 # H_ N_3 H_
    10 fourier                150.57460      0.31751      0.31322      0.27250 # C_R N_3 H_
    11 cosine/periodic         42.21907           -1            3 # C_R O_2_M Zn3f2
    12 fourier                 42.55738      0.34375      0.37500      0.28125 # Zn3f2 O_3_f Zn3f2

Dihedral Coeffs

    1       6.73711           -1            2 # X C_R O_2_M X bond order=1.5
    2       1.25000           -1            2 # X C_R C_R X bond order=1.0
    3       3.36856           -1            2 # X C_R C_R X bond order=1.5
    4       0.25000           -1            6 # X C_R N_3 X bond order=1.0

Improper Coeffs

    1      16.66667      1.00000     -1.00000      0.00000            1 # C_R X X X O_2 present=True
    2       2.00000      1.00000     -1.00000      0.00000            1 # C_R X X X O_2 present=False

Atoms

    1 1     6      0.00000      7.55454      5.31871      5.31871
    2 1     6      0.00000     18.19196     20.42779      5.31871
    3 1     6      0.00000     18.19196      5.31871     20.42779
    4 1     6      0.00000      7.55454     20.42779     20.42779
    5 1     6      0.00000      5.31871      7.55454      5.31871
    6 1     6      0.00000      5.31871     18.19196     20.42779
    7 1     6      0.00000     20.42779     18.19196      5.31871
    8 1     6      0.00000     20.42779      7.55454     20.42779
    9 1     6      0.00000      5.31871      5.31871      7.55454
   10 1     6      0.00000     20.42779      5.31871     18.19196
   11 1     6      0.00000      5.31871     20.42779     18.19196
   12 1     6      0.00000     20.42779     20.42779      7.55454
   13 1     6      0.00000      5.31871      7.55454     20.42779
   14 1     6      0.00000     20.42779     18.19196     20.42779
   15 1     6      0.00000      5.31871     18.19196      5.31871
   16 1     6      0.00000     20.42779      7.55454      5.31871
   17 1     6      0.00000      7.55454      5.31871     20.42779
   18 1     6      0.00000     18.19196      5.31871      5.31871
   19 1     6      0.00000     18.19196     20.42779     20.42779
   20 1     6      0.00000      7.55454     20.42779      5.31871
   21 1     6      0.00000      5.31871      5.31871     18.19196
   22 1     6      0.00000      5.31871     20.42779      7.55454
   23 1     6      0.00000     20.42779      5.31871      7.55454
   24 1     6      0.00000     20.42779     20.42779     18.19196
   25 1     6      0.00000      7.55454     18.19196     18.19196
   26 1     6      0.00000     18.19196      7.55454     18.19196
   27 1     6      0.00000     18.19196     18.19196      7.55454
   28 1     6      0.00000      7.55454      7.55454      7.55454
   29 1     6      0.00000      7.55454     18.19196      7.55454
   30 1     6      0.00000     18.19196     18.19196     18.19196
   31 1     6      0.00000     18.19196      7.55454      7.55454
   32 1     6      0.00000      7.55454      7.55454     18.19196
   33 1     2      0.00000     20.68912     14.03364     20.68912
   34 1     2      0.00000     20.70894     11.76512     20.70894
   35 1     2      0.00000     17.91081     11.76512     17.91081
   36 1     2      0.00000     17.91081     11.76512      7.83569
   37 1     2      0.00000     20.68912     11.71286      5.05739
   38 1     2      0.00000     20.70894     13.98138      5.03756
   39 1     2      0.00000     14.03364     17.93063     17.93063
   40 1     2      0.00000     13.98138     20.70894     20.70894
   41 1     2      0.00000     11.76512     17.91081     17.91081
   42 1     2      0.00000     13.98138     17.91081      7.83569
   43 1     2      0.00000     11.71286     17.93063      7.81587
   44 1     2      0.00000     13.98138     20.70894      5.03756
   45 1     2      0.00000     14.03364      7.81587      7.81587
   46 1     2      0.00000     13.98138      5.03756      5.03756
   47 1     2      0.00000     11.76512      5.03756      5.03756
   48 1     2      0.00000     10.76229      8.26978      8.26978
   49 1     2      0.00000     12.20951      8.67940      8.67940
   50 1     2      0.00000     17.47672     14.98421     17.47672
   51 1     2      0.00000     17.06710     13.53699     17.06710
   52 1     2      0.00000     23.63554      8.26978      4.60347
   53 1     2      0.00000     25.08276      8.67940      4.19385
   54 1     2      0.00000     13.98138      5.03756     20.70894
   55 1     2      0.00000     13.98138      7.83569     17.91081
   56 1     2      0.00000     11.76512      5.03756     20.70894
   57 1     2      0.00000     12.20951      8.67940     17.06710
   58 1     2      0.00000     10.76229      8.26978     17.47672
   59 1     2      0.00000     10.76229     21.14303     21.14303
   60 1     2      0.00000     12.20951     21.55265     21.55265
   61 1     2      0.00000     10.76229     21.14303      4.60347
   62 1     2      0.00000     12.20951     21.55265      4.19385
   63 1     2      0.00000     23.63554     21.14303      8.26978
   64 1     2      0.00000     25.08276     21.55265      8.67940
   65 1     2      0.00000     23.63554     21.14303     17.47672
   66 1     2      0.00000     25.08276     21.55265     17.06710
   67 1     2      0.00000     23.63554      8.26978     21.14303
   68 1     2      0.00000     25.08276      8.67940     21.55265
   69 1     2      0.00000     17.47672      2.11096     21.14303
   70 1     2      0.00000     17.06710      0.66374     21.55265
   71 1     2      0.00000     17.47672      2.11096      4.60347
   72 1     2      0.00000     17.06710      0.66374      4.19385
   73 1     2      0.00000     17.06710      8.67940     12.20951
   74 1     2      0.00000     17.47672      8.26978     10.76229
   75 1     2      0.00000     21.14303      8.26978     23.63554
   76 1     2      0.00000     21.55265      8.67940     25.08276
   77 1     2      0.00000      4.60347      2.11096     17.47672
   78 1     2      0.00000      4.19385      0.66374     17.06710
   79 1     2      0.00000      4.60347      8.26978     23.63554
   80 1     2      0.00000      4.19385      8.67940     25.08276
   81 1     2      0.00000      4.60347      2.11096      8.26978
   82 1     2      0.00000      4.19385      0.66374      8.67940
   83 1     2      0.00000      4.60347     14.98421     21.14303
   84 1     2      0.00000      4.19385     13.53699     21.55265
   85 1     2      0.00000      5.05739     11.71286     20.68912
   86 1     2      0.00000      7.83569     11.76512     17.91081
   87 1     2      0.00000      7.83569     13.98138     17.91081
   88 1     2      0.00000      4.60347     21.14303     10.76229
   89 1     2      0.00000      4.19385     21.55265     12.20951
   90 1     2      0.00000      5.03756     20.70894     13.98138
   91 1     2      0.00000      7.83569     17.91081     13.98138
   92 1     2      0.00000      7.81587     17.93063     11.71286
   93 1     2      0.00000      5.03756      5.03756     11.76512
   94 1     2      0.00000      5.03756      5.03756     13.98138
   95 1     2      0.00000      7.81587      7.81587     14.03364
   96 1     2      0.00000      8.26978      8.26978     10.76229
   97 1     2      0.00000      8.67940      8.67940     12.20951
   98 1     2      0.00000     17.91081     17.91081     11.76512
   99 1     2      0.00000     21.14303     21.14303     10.76229
  100 1     2      0.00000     21.55265     21.55265     12.20951
  101 1     2      0.00000     17.93063     17.93063     14.03364
  102 1     2      0.00000     20.70894     20.70894     13.98138
  103 1     2      0.00000     17.91081      7.83569     13.98138
  104 1     2      0.00000     20.70894      5.03756     11.76512
  105 1     2      0.00000     20.70894      5.03756     13.98138
  106 1     2      0.00000     17.47672     21.14303     23.63554
  107 1     2      0.00000     17.06710     21.55265     25.08276
  108 1     2      0.00000     17.47672     14.98421      8.26978
  109 1     2      0.00000     17.06710     13.53699      8.67940
  110 1     2      0.00000      7.83569     11.76512      7.83569
  111 1     2      0.00000      7.83569     13.98138      7.83569
  112 1     2      0.00000      5.03756     11.76512      5.03756
  113 1     2      0.00000      4.19385     13.53699      4.19385
  114 1     2      0.00000      4.60347     14.98421      4.60347
  115 1     2      0.00000      8.26978     21.14303     23.63554
  116 1     2      0.00000      8.67940     21.55265     25.08276
  117 1     2      0.00000     24.63837      5.03756      7.83569
  118 1     2      0.00000     24.63837      5.03756     17.91081
  119 1     2      0.00000     24.63837     17.91081     20.70894
  120 1     2      0.00000     24.63837     17.91081      5.03756
  121 1     2      0.00000      1.10813     17.91081      5.03756
  122 1     2      0.00000     20.70894      1.10813      7.83569
  123 1     2      0.00000     20.70894      1.10813     17.91081
  124 1     2      0.00000      7.83569      1.10813     20.70894
  125 1     2      0.00000      7.83569      1.10813      5.03756
  126 1     2      0.00000     17.91081      5.03756     24.63837
  127 1     2      0.00000      7.83569      5.03756     24.63837
  128 1     2      0.00000      5.03756     17.91081     24.63837
  129 1     2      0.00000     20.70894     17.91081     24.63837
  130 1     2      0.00000      7.83569     20.70894      1.10813
  131 1     2      0.00000      5.03756     17.91081      1.10813
  132 1     2      0.00000      7.83569      5.03756      1.10813
  133 1     2      0.00000      5.03756      7.83569      1.10813
  134 1     2      0.00000     17.91081      5.03756      1.10813
  135 1     2      0.00000     20.70894      7.83569      1.10813
  136 1     2      0.00000     17.91081     20.70894      1.10813
  137 1     2      0.00000     20.70894     17.91081      1.10813
  138 1     2      0.00000      1.10813      5.03756      7.83569
  139 1     2      0.00000      1.10813      7.83569      5.03756
  140 1     2      0.00000      1.10813     20.70894      7.83569
  141 1     2      0.00000      1.10813     20.70894     17.91081
  142 1     2      0.00000      1.10813      5.03756     17.91081
  143 1     2      0.00000      1.10813      7.83569     20.70894
  144 1     2      0.00000      1.10813     17.91081     20.70894
  145 1     2      0.00000     17.91081     24.63837      5.03756
  146 1     2      0.00000     20.70894     24.63837      7.83569
  147 1     2      0.00000     20.70894     24.63837     17.91081
  148 1     2      0.00000     17.91081     24.63837     20.70894
  149 1     2      0.00000      7.83569     24.63837     20.70894
  150 1     2      0.00000      5.03756     24.63837     17.91081
  151 1     2      0.00000      7.83569     24.63837      5.03756
  152 1     2      0.00000      5.03756     24.63837      7.83569
  153 1     1      0.00000      6.43663      6.43663      2.84550
  154 1     1      0.00000      6.43663      6.43663      1.43357
  155 1     1      0.00000      7.23399      5.63926      0.68537
  156 1     1      0.00000     19.30988     19.30988      2.84550
  157 1     1      0.00000     19.30988     19.30988      1.43357
  158 1     1      0.00000     18.51251     20.10724      0.68537
  159 1     1      0.00000     19.30988      6.43663     22.90100
  160 1     1      0.00000     19.30988      6.43663     24.31293
  161 1     1      0.00000     18.51251      5.63926     25.06113
  162 1     1      0.00000      6.43663     19.30988     22.90100
  163 1     1      0.00000      6.43663     19.30988     24.31293
  164 1     1      0.00000      7.23399     20.10724     25.06113
  165 1     1      0.00000      2.84550      6.43663      6.43663
  166 1     1      0.00000      1.43357      6.43663      6.43663
  167 1     1      0.00000      0.68537      7.23399      5.63926
  168 1     1      0.00000      2.84550     19.30988     19.30988
  169 1     1      0.00000      1.43357     19.30988     19.30988
  170 1     1      0.00000      0.68537     18.51251     20.10724
  171 1     1      0.00000     22.90100     19.30988      6.43663
  172 1     1      0.00000     24.31293     19.30988      6.43663
  173 1     1      0.00000     25.06113     18.51251      5.63926
  174 1     1      0.00000     22.90100      6.43663     19.30988
  175 1     1      0.00000     24.31293      6.43663     19.30988
  176 1     1      0.00000     25.06113      7.23399     20.10724
  177 1     1      0.00000      6.43663      2.84550      6.43663
  178 1     1      0.00000      6.43663      1.43357      6.43663
  179 1     1      0.00000      5.63926      0.68537      7.23399
  180 1     1      0.00000     19.30988      2.84550     19.30988
  181 1     1      0.00000     19.30988      1.43357     19.30988
  182 1     1      0.00000     20.10724      0.68537     18.51251
  183 1     1      0.00000      6.43663     22.90100     19.30988
  184 1     1      0.00000      6.43663     24.31293     19.30988
  185 1     1      0.00000      5.63926     25.06113     18.51251
  186 1     1      0.00000     19.30988     22.90100      6.43663
  187 1     1      0.00000     19.30988     24.31293      6.43663
  188 1     1      0.00000     20.10724     25.06113      7.23399
  189 1     1      0.00000      6.43663      6.43663     22.90100
  190 1     1      0.00000      6.43663      6.43663     24.31293
  191 1     1      0.00000      5.63926      7.23399     25.06113
  192 1     1      0.00000     19.30988     19.30988     22.90100
  193 1     1      0.00000     19.30988     19.30988     24.31293
  194 1     1      0.00000     20.10724     18.51251     25.06113
  195 1     1      0.00000      6.43663     19.30988      2.84550
  196 1     1      0.00000      6.43663     19.30988      1.43357
  197 1     1      0.00000      5.63926     18.51251      0.68537
  198 1     1      0.00000     19.30988      6.43663      2.84550
  199 1     1      0.00000     19.30988      6.43663      1.43357
  200 1     1      0.00000     20.10724      7.23399      0.68537
  201 1     1      0.00000      6.43663      2.84550     19.30988
  202 1     1      0.00000      6.43663      1.43357     19.30988
  203 1     1      0.00000      7.23399      0.68537     20.10724
  204 1     1      0.00000     19.30988      2.84550      6.43663
  205 1     1      0.00000     19.30988      1.43357      6.43663
  206 1     1      0.00000     18.51251      0.68537      5.63926
  207 1     1      0.00000     19.30988     22.90100     19.30988
  208 1     1      0.00000     19.30988     24.31293     19.30988
  209 1     1      0.00000     18.51251     25.06113     20.10724
  210 1     1      0.00000      6.43663     22.90100      6.43663
  211 1     1      0.00000      6.43663     24.31293      6.43663
  212 1     1      0.00000      7.23399     25.06113      5.63926
  213 1     1      0.00000      2.84550      6.43663     19.30988
  214 1     1      0.00000      1.43357      6.43663     19.30988
  215 1     1      0.00000      0.68537      5.63926     18.51251
  216 1     1      0.00000      2.84550     19.30988      6.43663
  217 1     1      0.00000      1.43357     19.30988      6.43663
  218 1     1      0.00000      0.68537     20.10724      7.23399
  219 1     1      0.00000     22.90100      6.43663      6.43663
  220 1     1      0.00000     24.31293      6.43663      6.43663
  221 1     1      0.00000     25.06113      5.63926      7.23399
  222 1     1      0.00000     22.90100     19.30988     19.30988
  223 1     1      0.00000     24.31293     19.30988     19.30988
  224 1     1      0.00000     25.06113     20.10724     18.51251
  225 1     1      0.00000     18.51251     20.10724     25.06113
  226 1     1      0.00000      7.23399      5.63926     25.06113
  227 1     1      0.00000      7.23399     20.10724      0.68537
  228 1     1      0.00000     18.51251      5.63926      0.68537
  229 1     1      0.00000     25.06113     18.51251     20.10724
  230 1     1      0.00000     25.06113      7.23399      5.63926
  231 1     1      0.00000      0.68537      7.23399     20.10724
  232 1     1      0.00000      0.68537     18.51251      5.63926
  233 1     1      0.00000     20.10724     25.06113     18.51251
  234 1     1      0.00000      5.63926     25.06113      7.23399
  235 1     1      0.00000     20.10724      0.68537      7.23399
  236 1     1      0.00000      5.63926      0.68537     18.51251
  237 1     1      0.00000     20.10724     18.51251      0.68537
  238 1     1      0.00000      5.63926      7.23399      0.68537
  239 1     1      0.00000     20.10724      7.23399     25.06113
  240 1     1      0.00000      5.63926     18.51251     25.06113
  241 1     1      0.00000     18.51251     25.06113      5.63926
  242 1     1      0.00000      7.23399     25.06113     20.10724
  243 1     1      0.00000      7.23399      0.68537      5.63926
  244 1     1      0.00000     18.51251      0.68537     20.10724
  245 1     1      0.00000     25.06113     20.10724      7.23399
  246 1     1      0.00000     25.06113      5.63926     18.51251
  247 1     1      0.00000      0.68537     20.10724     18.51251
  248 1     1      0.00000      0.68537      5.63926      7.23399
  249 1     1      0.00000      6.43663     19.30988     15.71875
  250 1     1      0.00000      6.43663     19.30988     14.30682
  251 1     1      0.00000      7.23399     18.51251     13.55862
  252 1     1      0.00000     19.30988      6.43663     15.71875
  253 1     1      0.00000     19.30988      6.43663     14.30682
  254 1     1      0.00000     18.51251      7.23399     13.55862
  255 1     1      0.00000     19.30988     19.30988     10.02775
  256 1     1      0.00000     19.30988     19.30988     11.43968
  257 1     1      0.00000     18.51251     18.51251     12.18788
  258 1     1      0.00000      6.43663      6.43663     10.02775
  259 1     1      0.00000      6.43663      6.43663     11.43968
  260 1     1      0.00000      7.23399      7.23399     12.18788
  261 1     1      0.00000      6.43663     15.71875     19.30988
  262 1     1      0.00000      6.43663     14.30682     19.30988
  263 1     1      0.00000      5.63926     13.55862     20.10724
  264 1     1      0.00000     19.30988     15.71875      6.43663
  265 1     1      0.00000     19.30988     14.30682      6.43663
  266 1     1      0.00000     20.10724     13.55862      5.63926
  267 1     1      0.00000      6.43663     10.02775      6.43663
  268 1     1      0.00000      6.43663     11.43968      6.43663
  269 1     1      0.00000      5.63926     12.18788      5.63926
  270 1     1      0.00000     19.30988     10.02775     19.30988
  271 1     1      0.00000     19.30988     11.43968     19.30988
  272 1     1      0.00000     20.10724     12.18788     20.10724
  273 1     1      0.00000      6.43663     19.30988     10.02775
  274 1     1      0.00000      6.43663     19.30988     11.43968
  275 1     1      0.00000      5.63926     20.10724     12.18788
  276 1     1      0.00000     19.30988      6.43663     10.02775
  277 1     1      0.00000     19.30988      6.43663     11.43968
  278 1     1      0.00000     20.10724      5.63926     12.18788
  279 1     1      0.00000      6.43663      6.43663     15.71875
  280 1     1      0.00000      6.43663      6.43663     14.30682
  281 1     1      0.00000      5.63926      5.63926     13.55862
  282 1     1      0.00000     19.30988     19.30988     15.71875
  283 1     1      0.00000     19.30988     19.30988     14.30682
  284 1     1      0.00000     20.10724     20.10724     13.55862
  285 1     1      0.00000      6.43663     15.71875      6.43663
  286 1     1      0.00000      6.43663     14.30682      6.43663
  287 1     1      0.00000      7.23399     13.55862      7.23399
  288 1     1      0.00000     19.30988     15.71875     19.30988
  289 1     1      0.00000     19.30988     14.30682     19.30988
  290 1     1      0.00000     18.51251     13.55862     18.51251
  291 1     1      0.00000     19.30988     10.02775      6.43663
  292 1     1      0.00000     19.30988     11.43968      6.43663
  293 1     1      0.00000     18.51251     12.18788      7.23399
  294 1     1      0.00000      6.43663     10.02775     19.30988
  295 1     1      0.00000      6.43663     11.43968     19.30988
  296 1     1      0.00000      7.23399     12.18788     18.51251
  297 1     1      0.00000     18.51251      7.23399     12.18788
  298 1     1      0.00000      7.23399     18.51251     12.18788
  299 1     1      0.00000      7.23399      7.23399     13.55862
  300 1     1      0.00000     18.51251     18.51251     13.55862
  301 1     1      0.00000     20.10724     12.18788      5.63926
  302 1     1      0.00000      5.63926     12.18788     20.10724
  303 1     1      0.00000     20.10724     13.55862     20.10724
  304 1     1      0.00000      5.63926     13.55862      5.63926
  305 1     1      0.00000     20.10724      5.63926     13.55862
  306 1     1      0.00000      5.63926     20.10724     13.55862
  307 1     1      0.00000     20.10724     20.10724     12.18788
  308 1     1      0.00000      5.63926      5.63926     12.18788
  309 1     1      0.00000     18.51251     12.18788     18.51251
  310 1     1      0.00000      7.23399     12.18788      7.23399
  311 1     1      0.00000      7.23399     13.55862     18.51251
  312 1     1      0.00000     18.51251     13.55862      7.23399
  313 1     1      0.00000     15.71875      6.43663     19.30988
  314 1     1      0.00000     14.30682      6.43663     19.30988
  315 1     1      0.00000     13.55862      7.23399     18.51251
  316 1     1      0.00000     15.71875     19.30988      6.43663
  317 1     1      0.00000     14.30682     19.30988      6.43663
  318 1     1      0.00000     13.55862     18.51251      7.23399
  319 1     1      0.00000     10.02775     19.30988     19.30988
  320 1     1      0.00000     11.43968     19.30988     19.30988
  321 1     1      0.00000     12.18788     18.51251     18.51251
  322 1     1      0.00000     10.02775      6.43663      6.43663
  323 1     1      0.00000     11.43968      6.43663      6.43663
  324 1     1      0.00000     12.18788      7.23399      7.23399
  325 1     1      0.00000     15.71875      6.43663      6.43663
  326 1     1      0.00000     14.30682      6.43663      6.43663
  327 1     1      0.00000     13.55862      5.63926      5.63926
  328 1     1      0.00000     15.71875     19.30988     19.30988
  329 1     1      0.00000     14.30682     19.30988     19.30988
  330 1     1      0.00000     13.55862     20.10724     20.10724
  331 1     1      0.00000     10.02775      6.43663     19.30988
  332 1     1      0.00000     11.43968      6.43663     19.30988
  333 1     1      0.00000     12.18788      5.63926     20.10724
  334 1     1      0.00000     10.02775     19.30988      6.43663
  335 1     1      0.00000     11.43968     19.30988      6.43663
  336 1     1      0.00000     12.18788     20.10724      5.63926
  337 1     1      0.00000     12.18788     18.51251      7.23399
  338 1     1      0.00000     12.18788      7.23399     18.51251
  339 1     1      0.00000     13.55862      7.23399      7.23399
  340 1     1      0.00000     13.55862     18.51251     18.51251
  341 1     1      0.00000     12.18788     20.10724     20.10724
  342 1     1      0.00000     12.18788      5.63926      5.63926
  343 1     1      0.00000     13.55862     20.10724      5.63926
  344 1     1      0.00000     13.55862      5.63926     20.10724
  345 1     3      0.00000      8.17915     21.05240     24.52637
  346 1     3      0.00000     24.52637      8.17915     21.05240
  347 1     3      0.00000      4.69410      1.22013      8.17915
  348 1     3      0.00000      4.69410      8.17915     24.52637
  349 1     3      0.00000     17.56735      1.22013      4.69410
  350 1     3      0.00000     24.52637     21.05240     17.56735
  351 1     3      0.00000     17.56735     21.05240     24.52637
  352 1     3      0.00000     24.52637      8.17915      4.69410
  353 1     3      0.00000      4.69410      1.22013     17.56735
  354 1     3      0.00000     21.05240      8.17915     24.52637
  355 1     3      0.00000     17.56735      1.22013     21.05240
  356 1     3      0.00000     24.52637     21.05240      8.17915
  357 1     3      0.00000      8.17915      8.17915     11.65312
  358 1     3      0.00000      4.69410     14.09338     21.05240
  359 1     3      0.00000      4.69410     21.05240     11.65312
  360 1     3      0.00000     17.56735     14.09338     17.56735
  361 1     3      0.00000     17.56735      8.17915     11.65312
  362 1     3      0.00000      4.69410     14.09338      4.69410
  363 1     3      0.00000     21.05240     21.05240     11.65312
  364 1     3      0.00000     17.56735     14.09338      8.17915
  365 1     3      0.00000     11.65312      8.17915      8.17915
  366 1     3      0.00000     11.65312     21.05240      4.69410
  367 1     3      0.00000     11.65312      8.17915     17.56735
  368 1     3      0.00000     11.65312     21.05240     21.05240
  369 1     4      0.00000      7.22601      5.64724      3.45003
  370 1     5      0.00000      6.43663      6.43663      6.43663
  371 1     4      0.00000     18.52049     20.09926      3.45003
  372 1     5      0.00000     19.30988     19.30988      6.43663
  373 1     4      0.00000     18.52049      5.64724     22.29647
  374 1     5      0.00000     19.30988      6.43663     19.30988
  375 1     4      0.00000      7.22601     20.09926     22.29647
  376 1     5      0.00000      6.43663     19.30988     19.30988
  377 1     4      0.00000      3.45003      7.22601      5.64724
  378 1     4      0.00000      3.45003     18.52049     20.09926
  379 1     4      0.00000     22.29647     18.52049      5.64724
  380 1     4      0.00000     22.29647      7.22601     20.09926
  381 1     4      0.00000      5.64724      3.45003      7.22601
  382 1     4      0.00000     20.09926      3.45003     18.52049
  383 1     4      0.00000      5.64724     22.29647     18.52049
  384 1     4      0.00000     20.09926     22.29647      7.22601
  385 1     4      0.00000      5.64724      7.22601     22.29647
  386 1     5      0.00000      6.43663      6.43663     19.30988
  387 1     4      0.00000     20.09926     18.52049     22.29647
  388 1     5      0.00000     19.30988     19.30988     19.30988
  389 1     4      0.00000      5.64724     18.52049      3.45003
  390 1     5      0.00000      6.43663     19.30988      6.43663
  391 1     4      0.00000     20.09926      7.22601      3.45003
  392 1     5      0.00000     19.30988      6.43663      6.43663
  393 1     4      0.00000      7.22601      3.45003     20.09926
  394 1     4      0.00000     18.52049      3.45003      5.64724
  395 1     4      0.00000     18.52049     22.29647     20.09926
  396 1     4      0.00000      7.22601     22.29647      5.64724
  397 1     4      0.00000      3.45003      5.64724     18.52049
  398 1     4      0.00000      3.45003     20.09926      7.22601
  399 1     4      0.00000     22.29647      5.64724      7.22601
  400 1     4      0.00000     22.29647     20.09926     18.52049
  401 1     4      0.00000     18.52049     20.09926     22.29647
  402 1     4      0.00000      7.22601      5.64724     22.29647
  403 1     4      0.00000      7.22601     20.09926      3.45003
  404 1     4      0.00000     18.52049      5.64724      3.45003
  405 1     4      0.00000     22.29647     18.52049     20.09926
  406 1     4      0.00000     22.29647      7.22601      5.64724
  407 1     4      0.00000      3.45003      7.22601     20.09926
  408 1     4      0.00000      3.45003     18.52049      5.64724
  409 1     4      0.00000     20.09926     22.29647     18.52049
  410 1     4      0.00000      5.64724     22.29647      7.22601
  411 1     4      0.00000     20.09926      3.45003      7.22601