Created by Ryther's code on 2024-12-08 14:06:02.313014

    5562 atoms
    6426 bonds
    10800 angles
    12312 dihedrals
    2700 impropers

    6 atom types
    8 bond types
    11 angle types
    3 dihedral types
    2 improper types

0.00000000 50.745 xlo xhi
0.00000000 43.94645912 ylo yhi
0.00000000 194.256 zlo zhi
-25.3725 0.0 0.0 xy xz yz 

Masses 

    1    12.0107
    2    12.0107
    3    1.00794
    4    15.9994
    5    15.9994
    6      65.38

Pair Coeffs

    1       0.10500      3.43085 # C_1 C_1
    2       0.10500      3.43085 # C_R C_R
    3       0.04400      2.57113 # H_ H_
    4       0.06000      3.11815 # O_2_M O_2_M
    5       0.06000      3.11815 # O_3_f O_3_f
    6       0.12400      2.46155 # Zn3f2 Zn3f2

Bond Coeffs

    1     122.16486      2.01487 # O_2_M Zn3f2 bond order=0.5
    2     122.15424      2.01487 # O_3_f Zn3f2 bond order=0.5
    3     357.44038      1.08142 # C_R H_ bond order=1.0
    4     391.66951      1.45800 # C_R C_R bond order=1.0
    5     714.55744      1.26901 # C_R O_2_M bond order=1.5
    6     462.65505      1.37926 # C_R C_R bond order=1.5
    7     410.80587      1.43500 # C_1 C_R bond order=1.0
    8     693.14814      1.20538 # C_1 C_1 bond order=3.0

Angle Coeffs

    1  fourier                131.49574      0.34375      0.37500      0.28125 # O_2_M Zn3f2 O_3_f
    2  fourier                131.50718      0.34375      0.37500      0.28125 # O_2_M Zn3f2 O_2_M
    3  cosine/periodic        137.71425           -1            3 # C_R C_R O_2_M
    4  cosine/periodic        206.77843           -1            3 # O_2_M C_R O_2_M
    5  cosine/periodic        111.29751           -1            3 # C_R C_R C_R
    6  cosine/periodic        102.18328           -1            3 # C_R C_R C_R
    7  cosine/periodic         57.28902           -1            3 # C_R C_R H_
    8  cosine/periodic        104.76060           -1            3 # C_1 C_R C_R
    9  cosine/periodic         65.94709            1            1 # C_1 C_1 C_R
    10 fourier                 42.55738      0.34375      0.37500      0.28125 # Zn3f2 O_3_f Zn3f2
    11 cosine/periodic         42.21907           -1            3 # C_R O_2_M Zn3f2

Dihedral Coeffs

    1       1.25000           -1            2 # X C_R C_R X bond order=1.0
    2       6.73711           -1            2 # X C_R O_2_M X bond order=1.5
    3       3.36856           -1            2 # X C_R C_R X bond order=1.5

Improper Coeffs

    1      16.66667      1.00000     -1.00000      0.00000            1 # C_R X X X O_2 present=True
    2       2.00000      1.00000     -1.00000      0.00000            1 # C_R X X X O_2 present=False

Atoms

    1 1     6      0.00000     21.61737     26.01630     38.13245
    2 1     6      0.00000     17.40554      5.71304     38.13245
    3 1     6      0.00000     37.09459     12.21712     38.13245
    4 1     6      0.00000      3.75513     17.93016    156.12355
    5 1     6      0.00000      7.96697     38.23342    156.12355
    6 1     6      0.00000    -11.72209     31.72934    156.12355
    7 1     6      0.00000     -3.75513     40.66512    102.88445
    8 1     6      0.00000     -7.96697     20.36186    102.88445
    9 1     6      0.00000     11.72209     26.86594    102.88445
   10 1     6      0.00000     29.12763     32.57898     26.61955
   11 1     6      0.00000      7.96697      8.93578     26.61955
   12 1     6      0.00000     39.02291      2.43170     26.61955
   13 1     6      0.00000     -3.75513     11.36748    167.63645
   14 1     6      0.00000     17.40554     35.01068    167.63645
   15 1     6      0.00000    -13.65040     41.51476    167.63645
   16 1     6      0.00000     29.12763      3.28134     91.37155
   17 1     6      0.00000     33.33946     23.58460     91.37155
   18 1     6      0.00000     13.65040     17.08052     91.37155
   19 1     6      0.00000     19.30847     27.37864     36.46185
   20 1     6      0.00000     17.38016      3.03231     36.46185
   21 1     6      0.00000     39.42887     13.53551     36.46185
   22 1     6      0.00000      6.06403     16.56782    157.79415
   23 1     6      0.00000      7.99234     40.91415    157.79415
   24 1     6      0.00000    -14.05636     30.41095    157.79415
   25 1     6      0.00000     -6.06403     42.02746    101.21385
   26 1     6      0.00000     -7.99234     17.68113    101.21385
   27 1     6      0.00000     14.05636     28.18433    101.21385
   28 1     6      0.00000     31.43653     31.21663     28.29015
   29 1     6      0.00000      7.99234     11.61651     28.29015
   30 1     6      0.00000     36.68863      1.11331     28.29015
   31 1     6      0.00000     -6.06403     12.72982    165.96585
   32 1     6      0.00000     17.38016     32.32995    165.96585
   33 1     6      0.00000    -11.31613     42.83315    165.96585
   34 1     6      0.00000     31.43653      1.91900     93.04215
   35 1     6      0.00000     33.36484     26.26533     93.04215
   36 1     6      0.00000     11.31613     15.76213     93.04215
   37 1     6      0.00000     19.33385     27.59838     39.60880
   38 1     6      0.00000     17.17718      2.94441     39.60880
   39 1     6      0.00000     39.60647     13.40367     39.60880
   40 1     6      0.00000      6.03866     16.34808    154.64720
   41 1     6      0.00000      8.19532     41.00205    154.64720
   42 1     6      0.00000    -14.23397     30.54279    154.64720
   43 1     6      0.00000     -6.03866     42.24720    104.36080
   44 1     6      0.00000     -8.19532     17.59323    104.36080
   45 1     6      0.00000     14.23397     28.05249    104.36080
   46 1     6      0.00000     31.41116     30.99690     25.14320
   47 1     6      0.00000      8.19532     11.70441     25.14320
   48 1     6      0.00000     36.51103      1.24515     25.14320
   49 1     6      0.00000     -6.03866     12.94956    169.11280
   50 1     6      0.00000     17.17718     32.24205    169.11280
   51 1     6      0.00000    -11.13853     42.70131    169.11280
   52 1     6      0.00000     31.41116      1.69926     89.89520
   53 1     6      0.00000     33.56782     26.35323     89.89520
   54 1     6      0.00000     11.13853     15.89397     89.89520
   55 1     6      0.00000     18.69953     24.82975     38.24901
   56 1     6      0.00000     19.89204      3.77940     38.24901
   57 1     6      0.00000     37.52593     15.33731     38.24901
   58 1     6      0.00000      6.67297     19.11671    156.00699
   59 1     6      0.00000      5.48046     40.16706    156.00699
   60 1     6      0.00000    -12.15343     28.60914    156.00699
   61 1     6      0.00000     -6.67297     39.47857    103.00101
   62 1     6      0.00000     -5.48046     18.42822    103.00101
   63 1     6      0.00000     12.15343     29.98613    103.00101
   64 1     6      0.00000    -18.69953     33.76553     26.50299
   65 1     6      0.00000      5.48046     10.86942     26.50299
   66 1     6      0.00000     13.21907     43.25796     26.50299
   67 1     6      0.00000     44.07203     10.18093    167.75301
   68 1     6      0.00000     19.89204     33.07703    167.75301
   69 1     6      0.00000     12.15343      0.68849    167.75301
   70 1     6      0.00000     32.04547      4.46789     91.25499
   71 1     6      0.00000     30.85296     25.51824     91.25499
   72 1     6      0.00000     13.21907     13.96033     91.25499
   73 1     6      0.00000     20.55173     25.84052     15.81244
   74 1     6      0.00000     18.09059      4.87806     15.81244
   75 1     6      0.00000     37.47518     13.22788     15.81244
   76 1     6      0.00000      4.82078     18.10594    178.44356
   77 1     6      0.00000      7.28191     39.06840    178.44356
   78 1     6      0.00000    -12.10268     30.71857    178.44356
   79 1     6      0.00000     -4.82078     40.48934     80.56444
   80 1     6      0.00000     -7.28191     19.52688     80.56444
   81 1     6      0.00000     12.10268     27.87670     80.56444
   82 1     6      0.00000     30.19327     32.75476     48.93956
   83 1     6      0.00000      7.28191      9.77076     48.93956
   84 1     6      0.00000     38.64232      1.42094     48.93956
   85 1     6      0.00000     -4.82078     11.19170    145.31644
   86 1     6      0.00000     18.09059     34.17570    145.31644
   87 1     6      0.00000    -13.26982     42.52552    145.31644
   88 1     6      0.00000     30.19327      3.45712    113.69156
   89 1     6      0.00000     32.65441     24.41958    113.69156
   90 1     6      0.00000     13.26982     16.06976    113.69156
   91 1     6      0.00000     17.91298     26.80734     14.76346
   92 1     6      0.00000     18.57267      2.10943     14.76346
   93 1     6      0.00000     39.63184     15.02969     14.76346
   94 1     6      0.00000      7.45951     17.13912    179.49254
   95 1     6      0.00000      6.79983     41.83703    179.49254
   96 1     6      0.00000    -14.25934     28.91677    179.49254
   97 1     6      0.00000     -7.45951     41.45616     79.51546
   98 1     6      0.00000     -6.79983     16.75825     79.51546
   99 1     6      0.00000     14.25934     29.67851     79.51546
  100 1     6      0.00000    -17.91298     31.78794     49.98854
  101 1     6      0.00000      6.79983     12.53939     49.98854
  102 1     6      0.00000     11.11316     43.56559     49.98854
  103 1     6      0.00000     43.28549     12.15852    144.26746
  104 1     6      0.00000     18.57267     31.40707    144.26746
  105 1     6      0.00000     14.25934      0.38087    144.26746
  106 1     6      0.00000     32.83201      2.49030    114.74054
  107 1     6      0.00000     32.17233     27.18821    114.74054
  108 1     6      0.00000     11.11316     14.26795    114.74054
  109 1     6      0.00000     18.03985     24.39028     16.57004
  110 1     6      0.00000     20.60247      3.42782     16.57004
  111 1     6      0.00000     37.47518     16.12835     16.57004
  112 1     6      0.00000      7.33265     19.55617    177.68596
  113 1     6      0.00000      4.77003     40.51864    177.68596
  114 1     6      0.00000    -12.10268     27.81811    177.68596
  115 1     6      0.00000     -7.33265     39.03910     81.32204
  116 1     6      0.00000     -4.77003     18.07664     81.32204
  117 1     6      0.00000     12.10268     30.77717     81.32204
  118 1     6      0.00000    -18.03985     34.20499     48.18196
  119 1     6      0.00000      4.77003     11.22100     48.18196
  120 1     6      0.00000     13.26982     42.46693     48.18196
  121 1     6      0.00000     43.41235      9.74147    146.07404
  122 1     6      0.00000     20.60247     32.72546    146.07404
  123 1     6      0.00000     12.10268      1.47953    146.07404
  124 1     6      0.00000     32.70515      4.90735    112.93396
  125 1     6      0.00000     30.14253     25.86982    112.93396
  126 1     6      0.00000     13.26982     13.16929    112.93396
  127 1     6      0.00000     18.59804     27.11497     17.67730
  128 1     6      0.00000     17.96373      2.54889     17.67730
  129 1     6      0.00000     39.55573     14.28260     17.67730
  130 1     6      0.00000      6.77446     16.83149    176.57870
  131 1     6      0.00000      7.40877     41.39756    176.57870
  132 1     6      0.00000    -14.18323     29.66386    176.57870
  133 1     6      0.00000     -6.77446     41.76378     82.42930
  134 1     6      0.00000     -7.40877     17.19771     82.42930
  135 1     6      0.00000     14.18323     28.93142     82.42930
  136 1     6      0.00000     32.14696     31.48031     47.07470
  137 1     6      0.00000      7.40877     12.09993     47.07470
  138 1     6      0.00000     36.56177      0.36622     47.07470
  139 1     6      0.00000     -6.77446     12.46615    147.18130
  140 1     6      0.00000     17.96373     31.84653    147.18130
  141 1     6      0.00000    -11.18927     43.58024    147.18130
  142 1     6      0.00000     32.14696      2.18267    111.82670
  143 1     6      0.00000     32.78127     26.74874    111.82670
  144 1     6      0.00000     11.18927     15.01504    111.82670
  145 1     6      0.00000     14.03099     30.45490     60.60787
  146 1     6      0.00000     -8.01771     40.87021     60.60787
  147 1     6      0.00000     -6.01328     16.56782     60.60787
  148 1     6      0.00000     11.34151     13.49156    133.64813
  149 1     6      0.00000     33.39021      3.07625    133.64813
  150 1     6      0.00000     31.38578     27.37864    133.64813
  151 1     6      0.00000     14.03099      1.15726    125.35987
  152 1     6      0.00000     42.72729     11.57257    125.35987
  153 1     6      0.00000     19.35922     31.21663    125.35987
  154 1     6      0.00000    -14.03099     28.14038      4.14413
  155 1     6      0.00000      8.01771     17.72507      4.14413
  156 1     6      0.00000      6.01328     42.02746      4.14413
  157 1     6      0.00000     39.40349     15.80608    190.11187
  158 1     6      0.00000     17.35479     26.22139    190.11187
  159 1     6      0.00000     19.35922      1.91900    190.11187
  160 1     6      0.00000     11.34151     42.78920     68.89613
  161 1     6      0.00000    -17.35479     32.37389     68.89613
  162 1     6      0.00000      6.01328     12.72982     68.89613
  163 1     6      0.00000     11.79821     31.68540     58.97612
  164 1     6      0.00000     -7.96697     38.32131     58.97612
  165 1     6      0.00000     -3.83125     17.88621     58.97612
  166 1     6      0.00000     13.57429     12.26106    135.27988
  167 1     6      0.00000     33.33946      5.62515    135.27988
  168 1     6      0.00000     29.20375     26.06025    135.27988
  169 1     6      0.00000     11.79821      2.38776    123.72812
  170 1     6      0.00000     42.77804      9.02367    123.72812
  171 1     6      0.00000     21.54125     32.53503    123.72812
  172 1     6      0.00000    -11.79821     26.90988      5.77588
  173 1     6      0.00000      7.96697     20.27397      5.77588
  174 1     6      0.00000      3.83125     40.70907      5.77588
  175 1     6      0.00000     37.17071     17.03658    188.48012
  176 1     6      0.00000     17.40554     23.67249    188.48012
  177 1     6      0.00000     21.54125      3.23739    188.48012
  178 1     6      0.00000     13.57429     41.55870     70.52788
  179 1     6      0.00000    -17.40554     34.92279     70.52788
  180 1     6      0.00000      3.83125     11.41143     70.52788
  181 1     6      0.00000     12.22954     28.65309     58.91784
  182 1     6      0.00000     -5.55658     40.21101     58.91784
  183 1     6      0.00000     -6.67297     19.02882     58.91784
  184 1     6      0.00000     13.14296     15.29337    135.33816
  185 1     6      0.00000     30.92908      3.73545    135.33816
  186 1     6      0.00000     32.04547     24.91764    135.33816
  187 1     6      0.00000    -13.14296     43.30191    123.66984
  188 1     6      0.00000     -5.55658     10.91337    123.66984
  189 1     6      0.00000     18.69953     33.67764    123.66984
  190 1     6      0.00000    -12.22954     29.94219      5.83416
  191 1     6      0.00000      5.55658     18.38427      5.83416
  192 1     6      0.00000      6.67297     39.56646      5.83416
  193 1     6      0.00000     37.60204     14.00427    188.42184
  194 1     6      0.00000     19.81592     25.56219    188.42184
  195 1     6      0.00000     18.69953      4.38000    188.42184
  196 1     6      0.00000     38.51546      0.64455     70.58616
  197 1     6      0.00000     30.92908     33.03309     70.58616
  198 1     6      0.00000      6.67297     10.26882     70.58616
  199 1     6      0.00000     14.23397     30.54279     57.57748
  200 1     6      0.00000     -8.19532     41.00205     57.57748
  201 1     6      0.00000     -6.03866     16.34808     57.57748
  202 1     6      0.00000     11.13853     13.40367    136.67852
  203 1     6      0.00000     33.56782      2.94441    136.67852
  204 1     6      0.00000     31.41116     27.59838    136.67852
  205 1     6      0.00000     14.23397      1.24515    122.32948
  206 1     6      0.00000     42.54968     11.70441    122.32948
  207 1     6      0.00000     19.33385     30.99690    122.32948
  208 1     6      0.00000    -14.23397     28.05249      7.17452
  209 1     6      0.00000      8.19532     17.59323      7.17452
  210 1     6      0.00000      6.03866     42.24720      7.17452
  211 1     6      0.00000     39.60647     15.89397    187.08148
  212 1     6      0.00000     17.17718     26.35323    187.08148
  213 1     6      0.00000     19.33385      1.69926    187.08148
  214 1     6      0.00000     11.13853     42.70131     71.92652
  215 1     6      0.00000    -17.17718     32.24205     71.92652
  216 1     6      0.00000      6.03866     12.94956     71.92652
  217 1     3      0.00000     15.25395     22.29843     33.25663
  218 1     3      0.00000     23.80702      2.06109     33.25663
  219 1     3      0.00000     37.05654     19.58694     33.25663
  220 1     3      0.00000     10.11855     21.64803    160.99937
  221 1     3      0.00000      1.56548     41.88537    160.99937
  222 1     3      0.00000    -11.68404     24.35952    160.99937
  223 1     3      0.00000    -10.11855     36.94725     98.00863
  224 1     3      0.00000     -1.56548     16.70991     98.00863
  225 1     3      0.00000     11.68404     34.23576     98.00863
  226 1     3      0.00000    -15.25395     36.29685     31.49537
  227 1     3      0.00000      1.56548     12.58773     31.49537
  228 1     3      0.00000     13.68846     39.00834     31.49537
  229 1     3      0.00000     40.62645      7.64961    162.76063
  230 1     3      0.00000     23.80702     31.35873    162.76063
  231 1     3      0.00000     11.68404      4.93812    162.76063
  232 1     3      0.00000     35.49105      6.99921     96.24737
  233 1     3      0.00000     26.93798     27.23655     96.24737
  234 1     3      0.00000     13.68846      9.71070     96.24737
  235 1     3      0.00000     16.45153     22.96642     35.17976
  236 1     3      0.00000     22.62973      2.76423     35.17976
  237 1     3      0.00000     37.03624     18.21581     35.17976
  238 1     3      0.00000      8.92097     20.98004    159.07624
  239 1     3      0.00000      2.74277     41.18223    159.07624
  240 1     3      0.00000    -11.66374     25.73065    159.07624
  241 1     3      0.00000     -8.92097     37.61524     99.93176
  242 1     3      0.00000     -2.74277     17.41305     99.93176
  243 1     3      0.00000     11.66374     32.86463     99.93176
  244 1     3      0.00000    -16.45153     35.62886     29.57224
  245 1     3      0.00000      2.74277     11.88459     29.57224
  246 1     3      0.00000     13.70876     40.37947     29.57224
  247 1     3      0.00000     41.82403      8.31760    164.68376
  248 1     3      0.00000     22.62973     32.06187    164.68376
  249 1     3      0.00000     11.66374      3.56699    164.68376
  250 1     3      0.00000     34.29347      6.33122     94.32424
  251 1     3      0.00000     28.11527     26.53341     94.32424
  252 1     3      0.00000     13.70876     11.08183     94.32424
  253 1     3      0.00000     14.64247     24.37710     27.66205
  254 1     3      0.00000     22.31258      0.49220     27.66205
  255 1     3      0.00000     39.16245     19.07716     27.66205
  256 1     3      0.00000     10.73003     19.56936    166.59395
  257 1     3      0.00000      3.05992     43.45426    166.59395
  258 1     3      0.00000    -13.78995     24.86930    166.59395
  259 1     3      0.00000    -10.73003     39.02592     92.41405
  260 1     3      0.00000     -3.05992     15.14102     92.41405
  261 1     3      0.00000     13.78995     33.72598     92.41405
  262 1     3      0.00000    -14.64247     34.21818     37.08995
  263 1     3      0.00000      3.05992     14.15662     37.08995
  264 1     3      0.00000     11.58255     39.51812     37.08995
  265 1     3      0.00000     40.01497      9.72828    157.16605
  266 1     3      0.00000     22.31258     29.78984    157.16605
  267 1     3      0.00000     13.78995      4.42834    157.16605
  268 1     3      0.00000     36.10253      4.92054    101.84195
  269 1     3      0.00000     28.43242     28.80544    101.84195
  270 1     3      0.00000     11.58255     10.22048    101.84195
  271 1     3      0.00000     12.96027     21.40193     25.44754
  272 1     3      0.00000     25.73025      0.52296     25.44754
  273 1     3      0.00000     37.42697     22.02157     25.44754
  274 1     3      0.00000     12.41223     22.54453    168.80846
  275 1     3      0.00000     -0.35775     43.42350    168.80846
  276 1     3      0.00000    -12.05447     21.92489    168.80846
  277 1     3      0.00000    -12.41223     36.05075     90.19954
  278 1     3      0.00000      0.35775     15.17178     90.19954
  279 1     3      0.00000     12.05447     36.67039     90.19954
  280 1     3      0.00000    -12.96027     37.19335     39.30446
  281 1     3      0.00000     -0.35775     14.12586     39.30446
  282 1     3      0.00000     13.31803     36.57371     39.30446
  283 1     3      0.00000     38.33277      6.75311    154.95154
  284 1     3      0.00000     25.73025     29.82060    154.95154
  285 1     3      0.00000     12.05447      7.37275    154.95154
  286 1     3      0.00000     37.78473      7.89571    104.05646
  287 1     3      0.00000     25.01475     28.77468    104.05646
  288 1     3      0.00000     13.31803      7.27607    104.05646
  289 1     3      0.00000     12.79281     21.25251     29.50749
  290 1     3      0.00000     25.94338      0.45265     29.50749
  291 1     3      0.00000     37.38130     22.24130     29.50749
  292 1     3      0.00000     12.57969     22.69395    164.74851
  293 1     3      0.00000     -0.57088     43.49381    164.74851
  294 1     3      0.00000    -12.00880     21.70516    164.74851
  295 1     3      0.00000    -12.57969     35.90133     94.25949
  296 1     3      0.00000      0.57088     15.10147     94.25949
  297 1     3      0.00000     12.00880     36.89012     94.25949
  298 1     3      0.00000    -12.79281     37.34277     35.24451
  299 1     3      0.00000     -0.57088     14.19617     35.24451
  300 1     3      0.00000     13.36370     36.35398     35.24451
  301 1     3      0.00000     38.16531      6.60369    159.01149
  302 1     3      0.00000     25.94338     29.75029    159.01149
  303 1     3      0.00000     12.00880      7.59248    159.01149
  304 1     3      0.00000     37.95219      8.04513     99.99651
  305 1     3      0.00000     24.80162     28.84499     99.99651
  306 1     3      0.00000     13.36370      7.05634     99.99651
  307 1     3      0.00000     11.09793     17.06002     29.21610
  308 1     3      0.00000     30.42163      1.08108     29.21610
  309 1     3      0.00000     34.59794     25.80536     29.21610
  310 1     3      0.00000     14.27457     26.88644    165.03990
  311 1     3      0.00000     -5.04913     42.86538    165.03990
  312 1     3      0.00000     -9.22544     18.14110    165.03990
  313 1     3      0.00000    -14.27457     31.70884     93.96810
  314 1     3      0.00000      5.04913     15.72990     93.96810
  315 1     3      0.00000      9.22544     40.45418     93.96810
  316 1     3      0.00000    -11.09793     41.53526     35.53590
  317 1     3      0.00000     -5.04913     13.56774     35.53590
  318 1     3      0.00000     16.14706     32.78992     35.53590
  319 1     3      0.00000     36.47043      2.41120    158.72010
  320 1     3      0.00000     30.42163     30.37872    158.72010
  321 1     3      0.00000      9.22544     11.15654    158.72010
  322 1     3      0.00000     39.64707     12.23762    100.28790
  323 1     3      0.00000     20.32337     28.21656    100.28790
  324 1     3      0.00000     16.14706      3.49228    100.28790
  325 1     3      0.00000     10.15407     14.92422     29.04127
  326 1     3      0.00000     32.74321      1.33158     29.04127
  327 1     3      0.00000     33.22021     27.69066     29.04127
  328 1     3      0.00000     15.21843     29.02224    165.21473
  329 1     3      0.00000     -7.37071     42.61488    165.21473
  330 1     3      0.00000     -7.84771     16.25580    165.21473
  331 1     3      0.00000    -15.21843     29.57304     93.79327
  332 1     3      0.00000      7.37071     15.98040     93.79327
  333 1     3      0.00000      7.84771     42.33948     93.79327
  334 1     3      0.00000    -10.15407     43.67106     35.71073
  335 1     3      0.00000     -7.37071     13.31724     35.71073
  336 1     3      0.00000     17.52479     30.90461     35.71073
  337 1     3      0.00000     35.52657      0.27540    158.54527
  338 1     3      0.00000     32.74321     30.62922    158.54527
  339 1     3      0.00000      7.84771     13.04184    158.54527
  340 1     3      0.00000     40.59093     14.37342    100.46273
  341 1     3      0.00000     18.00179     27.96606    100.46273
  342 1     3      0.00000     17.52479      1.60698    100.46273
  343 1     3      0.00000     10.33676     15.17911     24.96190
  344 1     3      0.00000     32.43113      1.36234     24.96190
  345 1     3      0.00000     33.34961     27.40501     24.96190
  346 1     3      0.00000     15.03574     28.76735    169.29410
  347 1     3      0.00000     -7.05863     42.58412    169.29410
  348 1     3      0.00000     -7.97711     16.54145    169.29410
  349 1     3      0.00000    -15.03574     29.82793     89.71390
  350 1     3      0.00000      7.05863     16.01116     89.71390
  351 1     3      0.00000      7.97711     42.05383     89.71390
  352 1     3      0.00000    -10.33676     43.41617     39.79010
  353 1     3      0.00000     -7.05863     13.28648     39.79010
  354 1     3      0.00000     17.39539     31.19027     39.79010
  355 1     3      0.00000     35.70926      0.53029    154.46590
  356 1     3      0.00000     32.43113     30.65998    154.46590
  357 1     3      0.00000      7.97711     12.75619    154.46590
  358 1     3      0.00000     40.40824     14.11853    104.54210
  359 1     3      0.00000     18.31387     27.93530    104.54210
  360 1     3      0.00000     17.39539      1.89263    104.54210
  361 1     3      0.00000     11.27808     17.31930     25.15615
  362 1     3      0.00000     30.10701      1.10745     25.15615
  363 1     3      0.00000     34.73242     25.51971     25.15615
  364 1     3      0.00000     14.09442     26.62716    169.09985
  365 1     3      0.00000     -4.73451     42.83901    169.09985
  366 1     3      0.00000     -9.35992     18.42675    169.09985
  367 1     3      0.00000    -14.09442     31.96812     89.90815
  368 1     3      0.00000      4.73451     15.75627     89.90815
  369 1     3      0.00000      9.35992     40.16853     89.90815
  370 1     3      0.00000    -11.27808     41.27598     39.59585
  371 1     3      0.00000     -4.73451     13.54137     39.59585
  372 1     3      0.00000     16.01258     33.07557     39.59585
  373 1     3      0.00000     36.65058      2.67048    154.66015
  374 1     3      0.00000     30.10701     30.40509    154.66015
  375 1     3      0.00000      9.35992     10.87089    154.66015
  376 1     3      0.00000     39.46692     11.97834    104.34785
  377 1     3      0.00000     20.63799     28.19019    104.34785
  378 1     3      0.00000     16.01258      3.77793    104.34785
  379 1     3      0.00000     16.73824     26.73263     21.19333
  380 1     3      0.00000     19.22474      1.12942     21.19333
  381 1     3      0.00000     40.15452     16.08440     21.19333
  382 1     3      0.00000      8.63426     17.21383    173.06267
  383 1     3      0.00000      6.14776     42.81704    173.06267
  384 1     3      0.00000    -14.78202     27.86206    173.06267
  385 1     3      0.00000     -8.63426     41.38145     85.94533
  386 1     3      0.00000     -6.14776     15.77824     85.94533
  387 1     3      0.00000     14.78202     30.73322     85.94533
  388 1     3      0.00000    -16.73824     31.86265     43.55867
  389 1     3      0.00000      6.14776     13.51940     43.55867
  390 1     3      0.00000     10.59048     42.51087     43.55867
  391 1     3      0.00000     42.11074     12.08381    150.69733
  392 1     3      0.00000     19.22474     30.42706    150.69733
  393 1     3      0.00000     14.78202      1.43558    150.69733
  394 1     3      0.00000     34.00676      2.56501    108.31067
  395 1     3      0.00000     31.52026     28.16822    108.31067
  396 1     3      0.00000     10.59048     13.21324    108.31067
  397 1     3      0.00000     15.76901     26.20527     23.25244
  398 1     3      0.00000     20.16606      0.55373     23.25244
  399 1     3      0.00000     40.18243     17.18746     23.25244
  400 1     3      0.00000      9.60349     17.74119    171.00356
  401 1     3      0.00000      5.20644     43.39273    171.00356
  402 1     3      0.00000    -14.80993     26.75900    171.00356
  403 1     3      0.00000     -9.60349     40.85409     88.00444
  404 1     3      0.00000     -5.20644     15.20255     88.00444
  405 1     3      0.00000     14.80993     31.83628     88.00444
  406 1     3      0.00000    -15.76901     32.39001     41.49956
  407 1     3      0.00000      5.20644     14.09509     41.49956
  408 1     3      0.00000     10.56257     41.40782     41.49956
  409 1     3      0.00000     41.14151     11.55645    152.75644
  410 1     3      0.00000     20.16606     29.85136    152.75644
  411 1     3      0.00000     14.80993      2.53864    152.75644
  412 1     3      0.00000     34.97599      3.09237    106.25156
  413 1     3      0.00000     30.57894     28.74391    106.25156
  414 1     3      0.00000     10.56257     12.11018    106.25156