Created by Ryther's code on 2024-12-08 14:03:40.634235

    904 atoms
    1040 bonds
    1776 angles
    2304 dihedrals
    480 impropers

    5 atom types
    6 bond types
    9 angle types
    3 dihedral types
    2 improper types

0.00000000 42.9806 xlo xhi
0.00000000 42.9806 ylo yhi
0.00000000 42.9806 zlo zhi
0.0 0.0 0.0 xy xz yz 

Masses 

    1    12.0107
    2    1.00794
    3    15.9994
    4    15.9994
    5      65.38

Pair Coeffs

    1       0.10500      3.43085 # C_R C_R
    2       0.04400      2.57113 # H_ H_
    3       0.06000      3.11815 # O_2_M O_2_M
    4       0.06000      3.11815 # O_3_f O_3_f
    5       0.12400      2.46155 # Zn3f2 Zn3f2

Bond Coeffs

    1     122.15424      2.01487 # O_3_f Zn3f2 bond order=0.5
    2     122.16486      2.01487 # O_2_M Zn3f2 bond order=0.5
    3     357.44038      1.08142 # C_R H_ bond order=1.0
    4     714.55744      1.26901 # C_R O_2_M bond order=1.5
    5     391.66951      1.45800 # C_R C_R bond order=1.0
    6     462.65505      1.37926 # C_R C_R bond order=1.5

Angle Coeffs

    1  fourier                131.49574      0.34375      0.37500      0.28125 # O_2_M Zn3f2 O_3_f
    2  fourier                131.50718      0.34375      0.37500      0.28125 # O_2_M Zn3f2 O_2_M
    3  cosine/periodic        206.77843           -1            3 # O_2_M C_R O_2_M
    4  cosine/periodic        137.71425           -1            3 # C_R C_R O_2_M
    5  cosine/periodic        102.18328           -1            3 # C_R C_R C_R
    6  cosine/periodic        111.29751           -1            3 # C_R C_R C_R
    7  cosine/periodic         57.28902           -1            3 # C_R C_R H_
    8  fourier                 42.55738      0.34375      0.37500      0.28125 # Zn3f2 O_3_f Zn3f2
    9  cosine/periodic         42.21907           -1            3 # C_R O_2_M Zn3f2

Dihedral Coeffs

    1       6.73711           -1            2 # X C_R O_2_M X bond order=1.5
    2       1.25000           -1            2 # X C_R C_R X bond order=1.0
    3       3.36856           -1            2 # X C_R C_R X bond order=1.5

Improper Coeffs

    1      16.66667      1.00000     -1.00000      0.00000            1 # C_R X X X O_2 present=True
    2       2.00000      1.00000     -1.00000      0.00000            1 # C_R X X X O_2 present=False

Atoms

    1 1     5      0.00000      9.62808      9.62808      9.62808
    2 1     5      0.00000     11.86308     11.86308      9.62808
    3 1     5      0.00000     11.86308      9.62808     11.86308
    4 1     5      0.00000      9.62808     11.86308     11.86308
    5 1     5      0.00000      9.62808      9.62808     33.35295
    6 1     5      0.00000     11.86308     11.86308     33.35295
    7 1     5      0.00000      9.62808     11.86308     31.11795
    8 1     5      0.00000     11.86308      9.62808     31.11795
    9 1     5      0.00000      9.62808     31.11795     11.86308
   10 1     5      0.00000     11.86308     33.35295     11.86308
   11 1     5      0.00000      9.62808     33.35295      9.62808
   12 1     5      0.00000     11.86308     31.11795      9.62808
   13 1     5      0.00000      9.62808     31.11795     31.11795
   14 1     5      0.00000     11.86308     33.35295     31.11795
   15 1     5      0.00000     11.86308     31.11795     33.35295
   16 1     5      0.00000      9.62808     33.35295     33.35295
   17 1     5      0.00000     31.11795      9.62808     11.86308
   18 1     5      0.00000     33.35295     11.86308     11.86308
   19 1     5      0.00000     31.11795     11.86308      9.62808
   20 1     5      0.00000     33.35295      9.62808      9.62808
   21 1     5      0.00000     31.11795      9.62808     31.11795
   22 1     5      0.00000     33.35295     11.86308     31.11795
   23 1     5      0.00000     33.35295      9.62808     33.35295
   24 1     5      0.00000     31.11795     11.86308     33.35295
   25 1     5      0.00000     31.11795     31.11795      9.62808
   26 1     5      0.00000     33.35295     33.35295      9.62808
   27 1     5      0.00000     33.35295     31.11795     11.86308
   28 1     5      0.00000     31.11795     33.35295     11.86308
   29 1     5      0.00000     31.11795     31.11795     33.35295
   30 1     5      0.00000     33.35295     33.35295     33.35295
   31 1     5      0.00000     31.11795     33.35295     31.11795
   32 1     5      0.00000     33.35295     31.11795     31.11795
   33 1     2      0.00000      9.30960      9.30960      5.53160
   34 1     2      0.00000      9.30874      9.30874      3.17455
   35 1     2      0.00000     12.18113     12.18113      5.53203
   36 1     2      0.00000     12.18414     12.18414      3.18142
   37 1     2      0.00000     12.18199      9.31046     15.95827
   38 1     2      0.00000     12.18070      9.30874     18.31618
   39 1     2      0.00000     12.78415     10.74515     20.31994
   40 1     2      0.00000      9.31046     12.18199     15.95827
   41 1     2      0.00000      9.30530     12.18371     18.30845
   42 1     2      0.00000      8.70615     10.74515     20.32037
   43 1     2      0.00000      5.53160      9.30960      9.30960
   44 1     2      0.00000      3.17455      9.30874      9.30874
   45 1     2      0.00000      1.17122      8.70658     10.74515
   46 1     2      0.00000      5.53203     12.18113     12.18113
   47 1     2      0.00000      3.18142     12.18414     12.18414
   48 1     2      0.00000      1.17122     12.78372     10.74515
   49 1     2      0.00000     15.95827     12.18199      9.31046
   50 1     2      0.00000     18.31618     12.18070      9.30874
   51 1     2      0.00000     15.95827      9.31046     12.18199
   52 1     2      0.00000     18.30845      9.30530     12.18371
   53 1     2      0.00000      9.30960      5.53160      9.30960
   54 1     2      0.00000      9.30874      3.17455      9.30874
   55 1     2      0.00000     10.74515      1.17122      8.70658
   56 1     2      0.00000     12.18113      5.53203     12.18113
   57 1     2      0.00000     12.18414      3.18142     12.18414
   58 1     2      0.00000     10.74515      1.17122     12.78372
   59 1     2      0.00000      9.31046     15.95827     12.18199
   60 1     2      0.00000      9.30874     18.31618     12.18070
   61 1     2      0.00000     12.18199     15.95827      9.31046
   62 1     2      0.00000     12.18371     18.30845      9.30530
   63 1     2      0.00000     10.74515     12.78372      1.17122
   64 1     2      0.00000     10.74515      8.70658      1.17122
   65 1     2      0.00000     12.78415     20.31994     10.74515
   66 1     2      0.00000      8.70615     20.32037     10.74515
   67 1     2      0.00000     20.32037     10.74515      8.70615
   68 1     2      0.00000     20.31994     10.74515     12.78415
   69 1     2      0.00000      8.71045     10.74515     22.66797
   70 1     2      0.00000     12.77985     10.74515     22.66797
   71 1     2      0.00000      1.17122      8.70658     32.23545
   72 1     2      0.00000      1.17122     12.78372     32.23545
   73 1     2      0.00000     10.74515      1.17122     30.19645
   74 1     2      0.00000     10.74515      1.17165     34.27445
   75 1     2      0.00000      9.30960      9.30960     37.44986
   76 1     2      0.00000      9.30573      9.30573     39.79789
   77 1     2      0.00000     10.74515      8.70615     41.81024
   78 1     2      0.00000     12.18113     12.18113     37.44943
   79 1     2      0.00000     12.18414     12.18414     39.79789
   80 1     2      0.00000     10.74515     12.78415     41.80981
   81 1     2      0.00000      9.31046     12.18199     27.02104
   82 1     2      0.00000      9.30573     12.18414     24.67301
   83 1     2      0.00000     12.18242      9.31089     27.02147
   84 1     2      0.00000     12.18414      9.30573     24.67301
   85 1     2      0.00000      9.31046      5.53160     33.67143
   86 1     2      0.00000      9.30659      3.18142     33.67530
   87 1     2      0.00000     12.18199      5.53160     30.80033
   88 1     2      0.00000     12.18371      3.18185     30.79560
   89 1     2      0.00000     12.18156     15.95784     33.67057
   90 1     2      0.00000     12.18328     18.30888     33.67573
   91 1     2      0.00000     12.78415     20.31994     32.23545
   92 1     2      0.00000      9.30960     15.95827     30.79990
   93 1     2      0.00000      9.30573     18.30845     30.79603
   94 1     2      0.00000      8.70615     20.32037     32.23545
   95 1     2      0.00000      5.53160      9.31046     33.67143
   96 1     2      0.00000      3.18142      9.30659     33.67530
   97 1     2      0.00000      5.53160     12.18199     30.80033
   98 1     2      0.00000      3.18185     12.18371     30.79560
   99 1     2      0.00000     15.95827      9.30960     30.79990
  100 1     2      0.00000     18.30845      9.30573     30.79603
  101 1     2      0.00000     20.31994     10.74515     30.19602
  102 1     2      0.00000     15.95784     12.18156     33.67057
  103 1     2      0.00000     18.30888     12.18328     33.67573
  104 1     2      0.00000     20.31994     10.74515     34.27445
  105 1     2      0.00000     12.78415     32.23545     20.31994
  106 1     2      0.00000      8.70615     32.23545     20.32037
  107 1     2      0.00000      1.17122     30.19645     10.74515
  108 1     2      0.00000      1.17165     34.27445     10.74515
  109 1     2      0.00000     10.74515     41.80981     12.78415
  110 1     2      0.00000     10.74515     41.81024      8.70615
  111 1     2      0.00000      9.30960     30.79990     15.95827
  112 1     2      0.00000      9.30573     30.79603     18.30845
  113 1     2      0.00000     12.18156     33.67057     15.95784
  114 1     2      0.00000     12.18328     33.67573     18.30888
  115 1     2      0.00000      9.31046     33.67143      5.53160
  116 1     2      0.00000      9.30659     33.67530      3.18142
  117 1     2      0.00000     10.74515     34.27445      1.17165
  118 1     2      0.00000     12.18199     30.80033      5.53160
  119 1     2      0.00000     12.18371     30.79560      3.18185
  120 1     2      0.00000     10.74515     30.19645      1.17122
  121 1     2      0.00000      9.31046     27.02104     12.18199
  122 1     2      0.00000      9.30530     24.67301     12.18371
  123 1     2      0.00000      8.71045     22.66797     10.74515
  124 1     2      0.00000     12.18199     27.02104      9.31046
  125 1     2      0.00000     12.18371     24.67301      9.30530
  126 1     2      0.00000     12.77985     22.66797     10.74515
  127 1     2      0.00000     12.18113     37.44943     12.18113
  128 1     2      0.00000     12.18414     39.79789     12.18414
  129 1     2      0.00000      9.30960     37.44986      9.30960
  130 1     2      0.00000      9.30573     39.79789      9.30573
  131 1     2      0.00000      5.53160     30.80033     12.18199
  132 1     2      0.00000      3.18185     30.79560     12.18371
  133 1     2      0.00000      5.53160     33.67143      9.31046
  134 1     2      0.00000      3.18142     33.67530      9.30659
  135 1     2      0.00000     15.95827     30.79990      9.30960
  136 1     2      0.00000     18.30845     30.79603      9.30573
  137 1     2      0.00000     20.32037     32.23545      8.70615
  138 1     2      0.00000     15.95784     33.67057     12.18156
  139 1     2      0.00000     18.30888     33.67573     12.18328
  140 1     2      0.00000     20.31994     32.23545     12.78415
  141 1     2      0.00000      9.30960     30.79947     27.02104
  142 1     2      0.00000      9.30874     30.79904     24.66528
  143 1     2      0.00000      8.71045     32.23545     22.66797
  144 1     2      0.00000     12.18156     33.67100     27.02147
  145 1     2      0.00000     12.18371     33.67573     24.67258
  146 1     2      0.00000     12.77985     32.23545     22.66797
  147 1     2      0.00000     12.18199     30.80033     37.44986
  148 1     2      0.00000     12.18070     30.79904     39.80605
  149 1     2      0.00000      9.31003     33.67186     37.44986
  150 1     2      0.00000      9.30573     33.67530     39.79832
  151 1     2      0.00000      5.53160     30.79990     30.79990
  152 1     2      0.00000      3.17455     30.79904     30.79904
  153 1     2      0.00000      1.17122     30.19645     32.23545
  154 1     2      0.00000      5.53203     33.67100     33.67100
  155 1     2      0.00000      3.18142     33.67487     33.67487
  156 1     2      0.00000      1.17165     34.27445     32.23545
  157 1     2      0.00000     15.95827     33.67143     30.80033
  158 1     2      0.00000     18.31575     33.67229     30.79904
  159 1     2      0.00000     15.95827     30.80033     33.67143
  160 1     2      0.00000     18.30845     30.79646     33.67530
  161 1     2      0.00000      9.30960     27.02104     30.79947
  162 1     2      0.00000      9.30874     24.66528     30.79904
  163 1     2      0.00000     12.18156     27.02147     33.67100
  164 1     2      0.00000     12.18371     24.67258     33.67573
  165 1     2      0.00000      9.31003     37.44986     33.67186
  166 1     2      0.00000      9.30917     39.80562     33.67272
  167 1     2      0.00000     10.74515     41.80981     34.27488
  168 1     2      0.00000     12.18199     37.44986     30.80033
  169 1     2      0.00000     12.18371     39.79789     30.79560
  170 1     2      0.00000     10.74515     41.80981     30.19602
  171 1     2      0.00000     10.74515     30.19602     41.80981
  172 1     2      0.00000     10.74515     34.27488     41.80981
  173 1     2      0.00000      8.71045     22.66797     32.23545
  174 1     2      0.00000     12.77985     22.66797     32.23545
  175 1     2      0.00000     20.31994     32.23545     30.19602
  176 1     2      0.00000     20.31994     32.23545     34.27445
  177 1     2      0.00000     34.27445     10.74515     20.31994
  178 1     2      0.00000     30.19602     10.74515     20.31994
  179 1     2      0.00000     41.80981     12.78415     10.74515
  180 1     2      0.00000     41.81024      8.70615     10.74515
  181 1     2      0.00000     32.23545      1.17122      8.70658
  182 1     2      0.00000     32.23545      1.17122     12.78372
  183 1     2      0.00000     30.79990      9.30960     15.95827
  184 1     2      0.00000     30.79603      9.30573     18.30845
  185 1     2      0.00000     33.67057     12.18156     15.95784
  186 1     2      0.00000     33.67573     12.18328     18.30888
  187 1     2      0.00000     30.80033     12.18199      5.53160
  188 1     2      0.00000     30.79560     12.18371      3.18185
  189 1     2      0.00000     32.23545     12.78372      1.17122
  190 1     2      0.00000     33.67143      9.31046      5.53160
  191 1     2      0.00000     33.67530      9.30659      3.18142
  192 1     2      0.00000     32.23545      8.70658      1.17122
  193 1     2      0.00000     30.80033      5.53160     12.18199
  194 1     2      0.00000     30.79560      3.18185     12.18371
  195 1     2      0.00000     33.67143      5.53160      9.31046
  196 1     2      0.00000     33.67530      3.18142      9.30659
  197 1     2      0.00000     33.67057     15.95784     12.18156
  198 1     2      0.00000     33.67573     18.30888     12.18328
  199 1     2      0.00000     34.27445     20.31994     10.74515
  200 1     2      0.00000     30.79990     15.95827      9.30960
  201 1     2      0.00000     30.79603     18.30845      9.30573
  202 1     2      0.00000     30.19602     20.31994     10.74515
  203 1     2      0.00000     27.02104      9.31046     12.18199
  204 1     2      0.00000     24.67301      9.30530     12.18371
  205 1     2      0.00000     22.66797     10.74515     12.77985
  206 1     2      0.00000     27.02104     12.18199      9.31046
  207 1     2      0.00000     24.67301     12.18371      9.30530
  208 1     2      0.00000     22.66797     10.74515      8.71045
  209 1     2      0.00000     37.44986      9.30960      9.30960
  210 1     2      0.00000     39.79789      9.30573      9.30573
  211 1     2      0.00000     37.44943     12.18113     12.18113
  212 1     2      0.00000     39.79789     12.18414     12.18414
  213 1     2      0.00000     30.79947      9.30960     27.02104
  214 1     2      0.00000     30.79904      9.30874     24.66528
  215 1     2      0.00000     30.20032     10.74515     22.66797
  216 1     2      0.00000     33.67100     12.18156     27.02147
  217 1     2      0.00000     33.67573     12.18371     24.67258
  218 1     2      0.00000     34.27058     10.74515     22.66797
  219 1     2      0.00000     33.67186      9.31003     37.44986
  220 1     2      0.00000     33.67272      9.30917     39.80562
  221 1     2      0.00000     30.80033     12.18199     37.44986
  222 1     2      0.00000     30.79560     12.18371     39.79789
  223 1     2      0.00000     27.02104      9.30960     30.79947
  224 1     2      0.00000     24.66528      9.30874     30.79904
  225 1     2      0.00000     27.02147     12.18156     33.67100
  226 1     2      0.00000     24.67258     12.18371     33.67573
  227 1     2      0.00000     37.44986     12.18199     30.80033
  228 1     2      0.00000     39.80605     12.18070     30.79904
  229 1     2      0.00000     41.80981     12.78415     32.23545
  230 1     2      0.00000     37.44986      9.31003     33.67186
  231 1     2      0.00000     39.79832      9.30573     33.67530
  232 1     2      0.00000     41.81024      8.70615     32.23545
  233 1     2      0.00000     30.79990      5.53160     30.79990
  234 1     2      0.00000     30.79904      3.17455     30.79904
  235 1     2      0.00000     32.23545      1.17122     30.19645
  236 1     2      0.00000     33.67100      5.53203     33.67100
  237 1     2      0.00000     33.67487      3.18142     33.67487
  238 1     2      0.00000     32.23545      1.17165     34.27445
  239 1     2      0.00000     30.80033     15.95827     33.67143
  240 1     2      0.00000     30.79904     18.31575     33.67229
  241 1     2      0.00000     33.67143     15.95827     30.80033
  242 1     2      0.00000     33.67530     18.30845     30.79646
  243 1     2      0.00000     32.23545      8.70615     41.81024
  244 1     2      0.00000     32.23545     12.78415     41.80981
  245 1     2      0.00000     34.27445     20.31994     32.23545
  246 1     2      0.00000     30.19602     20.31994     32.23545
  247 1     2      0.00000     22.66797     10.74515     34.27058
  248 1     2      0.00000     22.66797     10.74515     30.20032
  249 1     2      0.00000     30.79990     30.79990      5.53160
  250 1     2      0.00000     30.79904     30.79904      3.17455
  251 1     2      0.00000     33.67100     33.67100      5.53203
  252 1     2      0.00000     33.67487     33.67487      3.18142
  253 1     2      0.00000     33.67143     30.80033     15.95827
  254 1     2      0.00000     33.67229     30.79904     18.31575
  255 1     2      0.00000     34.27445     32.23545     20.31994
  256 1     2      0.00000     30.80033     33.67143     15.95827
  257 1     2      0.00000     30.79646     33.67530     18.30845
  258 1     2      0.00000     30.19602     32.23545     20.31994
  259 1     2      0.00000     27.02104     30.79947      9.30960
  260 1     2      0.00000     24.66528     30.79904      9.30874
  261 1     2      0.00000     27.02147     33.67100     12.18156
  262 1     2      0.00000     24.67258     33.67573     12.18371
  263 1     2      0.00000     37.44986     33.67186      9.31003
  264 1     2      0.00000     39.80562     33.67272      9.30917
  265 1     2      0.00000     41.80981     34.27488     10.74515
  266 1     2      0.00000     37.44986     30.80033     12.18199
  267 1     2      0.00000     39.79789     30.79560     12.18371
  268 1     2      0.00000     41.80981     30.19602     10.74515
  269 1     2      0.00000     30.79947     27.02104      9.30960
  270 1     2      0.00000     30.79904     24.66528      9.30874
  271 1     2      0.00000     33.67100     27.02147     12.18156
  272 1     2      0.00000     33.67573     24.67258     12.18371
  273 1     2      0.00000     30.80033     37.44986     12.18199
  274 1     2      0.00000     30.79904     39.80605     12.18070
  275 1     2      0.00000     32.23545     41.80981     12.78415
  276 1     2      0.00000     33.67186     37.44986      9.31003
  277 1     2      0.00000     33.67530     39.79832      9.30573
  278 1     2      0.00000     32.23545     41.81024      8.70615
  279 1     2      0.00000     32.23545     34.27445      1.17165
  280 1     2      0.00000     32.23545     30.19645      1.17122
  281 1     2      0.00000     30.20032     22.66797     10.74515
  282 1     2      0.00000     34.27058     22.66797     10.74515
  283 1     2      0.00000     22.66797     32.23545     12.77985
  284 1     2      0.00000     22.66797     32.23545      8.71045
  285 1     2      0.00000     30.20032     32.23545     22.66797
  286 1     2      0.00000     34.27058     32.23545     22.66797
  287 1     2      0.00000     41.80981     34.27488     32.23545
  288 1     2      0.00000     41.80981     30.19602     32.23545
  289 1     2      0.00000     32.23545     41.80981     34.27488
  290 1     2      0.00000     32.23545     41.80981     30.19602
  291 1     2      0.00000     30.79947     30.79947     37.44986
  292 1     2      0.00000     30.79603     30.79603     39.79789
  293 1     2      0.00000     32.23545     30.19602     41.80981
  294 1     2      0.00000     33.67100     33.67100     37.44943
  295 1     2      0.00000     33.67530     33.67530     39.79875
  296 1     2      0.00000     32.23545     34.27488     41.80981
  297 1     2      0.00000     30.79990     33.67186     27.02104
  298 1     2      0.00000     30.79603     33.67530     24.67258
  299 1     2      0.00000     33.67186     30.79990     27.02104
  300 1     2      0.00000     33.67530     30.79603     24.67258
  301 1     2      0.00000     30.79990     27.02104     33.67186
  302 1     2      0.00000     30.79603     24.67258     33.67530
  303 1     2      0.00000     30.20032     22.66797     32.23545
  304 1     2      0.00000     33.67186     27.02104     30.79990
  305 1     2      0.00000     33.67530     24.67258     30.79603
  306 1     2      0.00000     34.27058     22.66797     32.23545
  307 1     2      0.00000     33.67100     37.44943     33.67100
  308 1     2      0.00000     33.67530     39.79875     33.67530
  309 1     2      0.00000     30.79947     37.44986     30.79947
  310 1     2      0.00000     30.79603     39.79789     30.79603
  311 1     2      0.00000     27.02104     30.79990     33.67186
  312 1     2      0.00000     24.67258     30.79603     33.67530
  313 1     2      0.00000     22.66797     32.23545     34.27058
  314 1     2      0.00000     27.02104     33.67186     30.79990
  315 1     2      0.00000     24.67258     33.67530     30.79603
  316 1     2      0.00000     22.66797     32.23545     30.20032
  317 1     2      0.00000     37.44986     30.79947     30.79947
  318 1     2      0.00000     39.79789     30.79603     30.79603
  319 1     2      0.00000     37.44943     33.67100     33.67100
  320 1     2      0.00000     39.79875     33.67530     33.67530
  321 1     1      0.00000     10.74515     10.74515      7.11114
  322 1     1      0.00000     10.74515     10.74515      5.73103
  323 1     1      0.00000      9.88812      9.88812      5.04807
  324 1     1      0.00000      9.88984      9.88984      3.65120
  325 1     1      0.00000     10.74515     10.74515      2.94202
  326 1     1      0.00000     10.74515     10.74515      1.41621
  327 1     1      0.00000     11.60304     11.60304      5.04807
  328 1     1      0.00000     11.60003     11.60003      3.65120
  329 1     1      0.00000     10.74515     10.74515     14.37916
  330 1     1      0.00000     10.74515     10.74515     15.75884
  331 1     1      0.00000     11.60304      9.88812     16.44180
  332 1     1      0.00000     11.60003      9.88984     17.83910
  333 1     1      0.00000     10.74515     10.74515     18.54785
  334 1     1      0.00000     10.74515     10.74515     20.07409
  335 1     1      0.00000     11.95720     10.74515     20.78800
  336 1     1      0.00000      9.88812     11.60304     16.44180
  337 1     1      0.00000      9.88984     11.60003     17.83910
  338 1     1      0.00000      9.53310     10.74515     20.78800
  339 1     1      0.00000      7.11114     10.74515     10.74515
  340 1     1      0.00000      5.73103     10.74515     10.74515
  341 1     1      0.00000      5.04807      9.88812      9.88812
  342 1     1      0.00000      3.65120      9.88984      9.88984
  343 1     1      0.00000      2.94202     10.74515     10.74515
  344 1     1      0.00000      1.41621     10.74515     10.74515
  345 1     1      0.00000      0.70316      9.53310     10.74515
  346 1     1      0.00000      5.04807     11.60304     11.60304
  347 1     1      0.00000      3.65120     11.60003     11.60003
  348 1     1      0.00000      0.70316     11.95720     10.74515
  349 1     1      0.00000     14.37916     10.74515     10.74515
  350 1     1      0.00000     15.75884     10.74515     10.74515
  351 1     1      0.00000     16.44180     11.60304      9.88812
  352 1     1      0.00000     17.83910     11.60003      9.88984
  353 1     1      0.00000     18.54785     10.74515     10.74515
  354 1     1      0.00000     20.07409     10.74515     10.74515
  355 1     1      0.00000     16.44180      9.88812     11.60304
  356 1     1      0.00000     17.83910      9.88984     11.60003
  357 1     1      0.00000     10.74515      7.11114     10.74515
  358 1     1      0.00000     10.74515      5.73103     10.74515
  359 1     1      0.00000      9.88812      5.04807      9.88812
  360 1     1      0.00000      9.88984      3.65120      9.88984
  361 1     1      0.00000     10.74515      2.94202     10.74515
  362 1     1      0.00000     10.74515      1.41621     10.74515
  363 1     1      0.00000     10.74515      0.70316      9.53310
  364 1     1      0.00000     11.60304      5.04807     11.60304
  365 1     1      0.00000     11.60003      3.65120     11.60003
  366 1     1      0.00000     10.74515      0.70316     11.95720
  367 1     1      0.00000     10.74515     14.37916     10.74515
  368 1     1      0.00000     10.74515     15.75884     10.74515
  369 1     1      0.00000      9.88812     16.44180     11.60304
  370 1     1      0.00000      9.88984     17.83910     11.60003
  371 1     1      0.00000     10.74515     18.54785     10.74515
  372 1     1      0.00000     10.74515     20.07409     10.74515
  373 1     1      0.00000     11.60304     16.44180      9.88812
  374 1     1      0.00000     11.60003     17.83910      9.88984
  375 1     1      0.00000     10.74515     11.95720      0.70316
  376 1     1      0.00000     10.74515      9.53310      0.70316
  377 1     1      0.00000     11.95720     20.78800     10.74515
  378 1     1      0.00000      9.53310     20.78800     10.74515
  379 1     1      0.00000     20.78800     10.74515      9.53310
  380 1     1      0.00000     20.78800     10.74515     11.95720
  381 1     1      0.00000     10.74515     10.74515     28.60101
  382 1     1      0.00000     10.74515     10.74515     27.22219
  383 1     1      0.00000     10.74515     10.74515     24.43189
  384 1     1      0.00000     10.74515     10.74515     22.90694
  385 1     1      0.00000      9.53310     10.74515     22.19303
  386 1     1      0.00000     11.95720     10.74515     22.19303
  387 1     1      0.00000     10.74515     10.74515     35.86903
  388 1     1      0.00000     10.74515     10.74515     37.24914
  389 1     1      0.00000     10.74515     10.74515     40.03901
  390 1     1      0.00000     10.74515     10.74515     41.56396
  391 1     1      0.00000      7.11114     10.74515     32.23545
  392 1     1      0.00000      5.73103     10.74515     32.23545
  393 1     1      0.00000      2.94202     10.74515     32.23545
  394 1     1      0.00000      1.41621     10.74515     32.23545
  395 1     1      0.00000      0.70316      9.53310     32.23545
  396 1     1      0.00000      0.70316     11.95720     32.23545
  397 1     1      0.00000     14.37916     10.74515     32.23545
  398 1     1      0.00000     15.75884     10.74515     32.23545
  399 1     1      0.00000     18.54785     10.74515     32.23545
  400 1     1      0.00000     20.07409     10.74515     32.23545
  401 1     1      0.00000     10.74515      7.11114     32.23545
  402 1     1      0.00000     10.74515      5.73103     32.23545
  403 1     1      0.00000     10.74515      2.94202     32.23545
  404 1     1      0.00000     10.74515      1.41621     32.23545
  405 1     1      0.00000     10.74515      0.70316     31.02297
  406 1     1      0.00000     10.74515      0.70316     33.44793
  407 1     1      0.00000     10.74515     14.37916     32.23545
  408 1     1      0.00000     10.74515     15.75884     32.23545
  409 1     1      0.00000     10.74515     18.54785     32.23545
  410 1     1      0.00000     10.74515     20.07409     32.23545
  411 1     1      0.00000      9.88812      9.88812     37.93296
  412 1     1      0.00000      9.88984      9.88984     39.32897
  413 1     1      0.00000     10.74515      9.53310     42.27787
  414 1     1      0.00000     11.60304     11.60304     37.93296
  415 1     1      0.00000     11.60003     11.60003     39.32897
  416 1     1      0.00000     10.74515     11.95720     42.27787
  417 1     1      0.00000      9.88812     11.60304     26.53794
  418 1     1      0.00000      9.88984     11.60003     25.14193
  419 1     1      0.00000     11.60304      9.88812     26.53794