Created by Ryther's code on 2024-12-08 14:53:26.488579

    568 atoms
    680 bonds
    1200 angles
    1440 dihedrals
    288 impropers

    5 atom types
    7 bond types
    12 angle types
    4 dihedral types
    2 improper types

0.00000000 30.0915 xlo xhi
0.00000000 30.0915 ylo yhi
0.00000000 30.0915 zlo zhi
0.0 0.0 0.0 xy xz yz 

Masses 

    1    12.0107
    2    1.00794
    3    15.9994
    4    15.9994
    5      65.38

Pair Coeffs

    1       0.10500      3.43085 # C_R C_R
    2       0.04400      2.57113 # H_ H_
    3       0.06000      3.11815 # O_2_M O_2_M
    4       0.06000      3.11815 # O_3_f O_3_f
    5       0.12400      2.46155 # Zn3f2 Zn3f2

Bond Coeffs

    1     122.16486      2.01487 # O_2_M Zn3f2 bond order=0.5
    2     122.15424      2.01487 # O_3_f Zn3f2 bond order=0.5
    3     357.44038      1.08142 # C_R H_ bond order=1.0
    4     391.66951      1.45800 # C_R C_R bond order=1.0
    5     714.55744      1.26901 # C_R O_2_M bond order=1.5
    6     523.75938      1.32339 # C_R C_R bond order=2.0
    7     462.65505      1.37926 # C_R C_R bond order=1.5

Angle Coeffs

    1  fourier                131.50718      0.34375      0.37500      0.28125 # O_2_M Zn3f2 O_2_M
    2  fourier                131.49574      0.34375      0.37500      0.28125 # O_2_M Zn3f2 O_3_f
    3  cosine/periodic        137.71425           -1            3 # C_R C_R O_2_M
    4  cosine/periodic        206.77843           -1            3 # O_2_M C_R O_2_M
    5  cosine/periodic        108.24400           -1            3 # C_R C_R C_R
    6  cosine/periodic        102.18328           -1            3 # C_R C_R C_R
    7  cosine/periodic        118.27773           -1            3 # C_R C_R C_R
    8  cosine/periodic         61.73740           -1            3 # C_R C_R H_
    9  cosine/periodic         57.28902           -1            3 # C_R C_R H_
    10 cosine/periodic        111.29751           -1            3 # C_R C_R C_R
    11 fourier                 42.55738      0.34375      0.37500      0.28125 # Zn3f2 O_3_f Zn3f2
    12 cosine/periodic         42.21907           -1            3 # C_R O_2_M Zn3f2

Dihedral Coeffs

    1       1.25000           -1            2 # X C_R C_R X bond order=1.0
    2       6.73711           -1            2 # X C_R O_2_M X bond order=1.5
    3       4.87169           -1            2 # X C_R C_R X bond order=2.0
    4       3.36856           -1            2 # X C_R C_R X bond order=1.5

Improper Coeffs

    1      16.66667      1.00000     -1.00000      0.00000            1 # C_R X X X O_2 present=True
    2       2.00000      1.00000     -1.00000      0.00000            1 # C_R X X X O_2 present=False

Atoms

    1 1     5      0.00000      6.40407      8.64168      6.40407
    2 1     5      0.00000     23.68743     21.44982      6.40407
    3 1     5      0.00000     23.68743      8.64168     23.68743
    4 1     5      0.00000      6.40407     21.44982     23.68743
    5 1     5      0.00000      6.40407      6.40407      8.64168
    6 1     5      0.00000      6.40407     23.68743     21.44982
    7 1     5      0.00000     23.68743     23.68743      8.64168
    8 1     5      0.00000     23.68743      6.40407     21.44982
    9 1     5      0.00000      8.64168      6.40407      6.40407
   10 1     5      0.00000     21.44982      6.40407     23.68743
   11 1     5      0.00000      8.64168     23.68743     23.68743
   12 1     5      0.00000     21.44982     23.68743      6.40407
   13 1     5      0.00000      8.64168      6.40407     23.68743
   14 1     5      0.00000     21.44982     23.68743     23.68743
   15 1     5      0.00000      8.64168     23.68743      6.40407
   16 1     5      0.00000     21.44982      6.40407      6.40407
   17 1     5      0.00000      6.40407      6.40407     21.44982
   18 1     5      0.00000     23.68743      6.40407      8.64168
   19 1     5      0.00000     23.68743     23.68743     21.44982
   20 1     5      0.00000      6.40407     23.68743      8.64168
   21 1     5      0.00000      6.40407      8.64168     23.68743
   22 1     5      0.00000      6.40407     21.44982      6.40407
   23 1     5      0.00000     23.68743      8.64168      6.40407
   24 1     5      0.00000     23.68743     21.44982     23.68743
   25 1     5      0.00000      8.64168     21.44982     21.44982
   26 1     5      0.00000     21.44982     21.44982      8.64168
   27 1     5      0.00000      8.64168      8.64168      8.64168
   28 1     5      0.00000     21.44982      8.64168     21.44982
   29 1     5      0.00000      8.64168     21.44982      8.64168
   30 1     5      0.00000     21.44982      8.64168      8.64168
   31 1     5      0.00000      8.64168      8.64168     21.44982
   32 1     5      0.00000     21.44982     21.44982     21.44982
   33 1     2      0.00000     12.28937     24.01783     24.01783
   34 1     2      0.00000     14.54322     24.43791     24.43791
   35 1     2      0.00000     16.93219     23.90108     23.90108
   36 1     2      0.00000     17.80213     21.11942     21.11942
   37 1     2      0.00000     15.54828     20.69934     20.69934
   38 1     2      0.00000     13.14968     21.23828     21.23828
   39 1     2      0.00000     13.15931     21.23617      8.85533
   40 1     2      0.00000     12.28937     24.01783      6.07367
   41 1     2      0.00000     14.54322     24.43791      5.65359
   42 1     2      0.00000     16.93219     23.90108      6.19042
   43 1     2      0.00000     17.80213     21.11942      8.97208
   44 1     2      0.00000     15.54828     20.69934      9.39216
   45 1     2      0.00000     27.33512     24.01783      8.97208
   46 1     2      0.00000     28.19543     21.23828      6.19253
   47 1     2      0.00000     27.33512     24.01783     21.11942
   48 1     2      0.00000     28.20506     21.23617     23.90108
   49 1     2      0.00000     13.14968      8.85322      8.85322
   50 1     2      0.00000     15.54828      9.39216      9.39216
   51 1     2      0.00000     17.80213      8.97208      8.97208
   52 1     2      0.00000     16.93219      6.19042      6.19042
   53 1     2      0.00000     14.54322      5.65359      5.65359
   54 1     2      0.00000     12.28937      6.07367      6.07367
   55 1     2      0.00000     15.54828      9.39216     20.69934
   56 1     2      0.00000     17.80213      8.97208     21.11942
   57 1     2      0.00000     16.93219      6.19042     23.90108
   58 1     2      0.00000     14.54322      5.65359     24.43791
   59 1     2      0.00000     12.28937      6.07367     24.01783
   60 1     2      0.00000     13.15931      8.85533     21.23617
   61 1     2      0.00000      6.07367     17.80213     24.01783
   62 1     2      0.00000      5.65359     15.54828     24.43791
   63 1     2      0.00000      6.19042     13.15931     23.90108
   64 1     2      0.00000      9.39216     14.54322     20.69934
   65 1     2      0.00000      8.97208     12.28937      8.97208
   66 1     2      0.00000      9.39216     14.54322      9.39216
   67 1     2      0.00000      8.85533     16.93219      8.85533
   68 1     2      0.00000      6.07367     17.80213      6.07367
   69 1     2      0.00000      5.65359     15.54828      5.65359
   70 1     2      0.00000      6.19042     13.15931      6.19042
   71 1     2      0.00000     20.69934     14.54322     20.69934
   72 1     2      0.00000     21.11942     12.28937     21.11942
   73 1     2      0.00000     21.23617     16.93219     21.23617
   74 1     2      0.00000     24.01783     17.80213     24.01783
   75 1     2      0.00000     24.43791     15.54828     24.43791
   76 1     2      0.00000     23.90108     13.15931     23.90108
   77 1     2      0.00000     21.11942     12.28937      8.97208
   78 1     2      0.00000     20.69934     14.54322      9.39216
   79 1     2      0.00000     23.90108     13.15931      6.19042
   80 1     2      0.00000     24.43791     15.54828      5.65359
   81 1     2      0.00000     24.01783     17.80213      6.07367
   82 1     2      0.00000     21.23828     16.94182      8.85322
   83 1     2      0.00000     28.20506      8.85533      6.19042
   84 1     2      0.00000     27.33512      6.07367      8.97208
   85 1     2      0.00000     28.19543      8.85322     23.89897
   86 1     2      0.00000     27.33512      6.07367     21.11942
   87 1     2      0.00000     24.01783      2.75638      8.97208
   88 1     2      0.00000     21.23617      1.88644      6.19042
   89 1     2      0.00000     24.01783      2.75638     21.11942
   90 1     2      0.00000     21.23828      1.89607     23.89897
   91 1     2      0.00000      8.85322      1.89607      6.19253
   92 1     2      0.00000      6.07367      2.75638      8.97208
   93 1     2      0.00000      8.85533      1.88644     23.90108
   94 1     2      0.00000      6.07367      2.75638     21.11942
   95 1     2      0.00000      1.88644      6.19042     21.23617
   96 1     2      0.00000      2.75638      8.97208     24.01783
   97 1     2      0.00000      1.88644      6.19042      8.85533
   98 1     2      0.00000      2.75638      8.97208      6.07367
   99 1     2      0.00000      2.75638     21.11942     24.01783
  100 1     2      0.00000      1.88644     23.90108     21.23617
  101 1     2      0.00000      1.88644     23.90108      8.85533
  102 1     2      0.00000      6.19042     28.20506     21.23617
  103 1     2      0.00000      2.75638     21.11942      6.07367
  104 1     2      0.00000      8.97208     27.33512      6.07367
  105 1     2      0.00000      8.97208     27.33512     24.01783
  106 1     2      0.00000      6.19042     28.20506      8.85533
  107 1     2      0.00000     23.90108     28.20506      8.85533
  108 1     2      0.00000     21.11942     27.33512      6.07367
  109 1     2      0.00000     23.90108     28.20506     21.23617
  110 1     2      0.00000     21.11942     27.33512     24.01783
  111 1     2      0.00000      5.65359     24.43791     14.54322
  112 1     2      0.00000      6.07367     24.01783     12.28937
  113 1     2      0.00000      6.19042     23.90108     16.93219
  114 1     2      0.00000      8.97208     21.11942     17.80213
  115 1     2      0.00000      9.39216     20.69934     15.54828
  116 1     2      0.00000      8.85533     21.23617     13.15931
  117 1     2      0.00000     24.43791     24.43791     14.54322
  118 1     2      0.00000     24.01783     24.01783     12.28937
  119 1     2      0.00000     21.23828     21.23828     13.14968
  120 1     2      0.00000     23.90108     23.90108     16.93219
  121 1     2      0.00000     21.11942     21.11942     17.80213
  122 1     2      0.00000     20.69934     20.69934     15.54828
  123 1     2      0.00000      8.85322      8.85322     13.14968
  124 1     2      0.00000      9.39216      9.39216     15.54828
  125 1     2      0.00000      8.97208      8.97208     17.80213
  126 1     2      0.00000      6.19042      6.19042     16.93219
  127 1     2      0.00000      5.65359      5.65359     14.54322
  128 1     2      0.00000      6.07367      6.07367     12.28937
  129 1     2      0.00000     20.69934      9.39216     15.54828
  130 1     2      0.00000     21.23617      8.85533     13.15931
  131 1     2      0.00000     21.11942      8.97208     17.80213
  132 1     2      0.00000     23.90108      6.19042     16.93219
  133 1     2      0.00000     24.43791      5.65359     14.54322
  134 1     2      0.00000     23.90108     21.23617      1.88644
  135 1     2      0.00000     21.11942     24.01783      2.75638
  136 1     2      0.00000      6.19042      8.85533      1.88644
  137 1     2      0.00000      8.97208      6.07367      2.75638
  138 1     2      0.00000      8.97208     24.01783      2.75638
  139 1     2      0.00000      6.19042     21.23617      1.88644
  140 1     2      0.00000     24.01783      8.97208     27.33512
  141 1     2      0.00000     21.23828      6.19253     28.19543
  142 1     2      0.00000     21.23617     23.90108     28.20506
  143 1     2      0.00000     24.01783     21.11942     27.33512
  144 1     2      0.00000      8.85322     23.89897     28.19543
  145 1     2      0.00000      6.07367     21.11942     27.33512
  146 1     2      0.00000      6.07367      8.97208     27.33512
  147 1     2      0.00000      8.85533      6.19042     28.20506
  148 1     2      0.00000      0.50253     20.69934      5.65359
  149 1     2      0.00000      0.50253     20.69934     24.43791
  150 1     2      0.00000      0.50253      9.39216      5.65359
  151 1     2      0.00000      0.50253      9.39216     24.43791
  152 1     2      0.00000      5.65359      0.50253      9.39216
  153 1     2      0.00000      5.65359      0.50253     20.69934
  154 1     2      0.00000     24.43791      0.50253      9.39216
  155 1     2      0.00000     24.43791      0.50253     20.69934
  156 1     2      0.00000     29.58897      5.65359      9.39216
  157 1     2      0.00000     29.58897      5.65359     20.69934
  158 1     2      0.00000     29.58897     24.43791     20.69934
  159 1     2      0.00000     29.58897     24.43791      9.39216
  160 1     2      0.00000     20.69934     29.58897     24.43791
  161 1     2      0.00000     20.69934     29.58897      5.65359
  162 1     2      0.00000      9.39216     29.58897     24.43791
  163 1     2      0.00000      9.39216     29.58897      5.65359
  164 1     2      0.00000     20.69934      5.65359      0.50253
  165 1     2      0.00000      9.39216      5.65359      0.50253
  166 1     2      0.00000     20.69934     24.43791      0.50253
  167 1     2      0.00000      9.39216     24.43791      0.50253
  168 1     2      0.00000     24.43791     20.69934     29.58897
  169 1     2      0.00000      5.65359     20.69934     29.58897
  170 1     2      0.00000      5.65359      9.39216     29.58897
  171 1     2      0.00000     24.43791      9.39216     29.58897
  172 1     2      0.00000      8.92032     17.03420     21.17118
  173 1     2      0.00000      9.03106     12.20301     21.06044
  174 1     2      0.00000     24.07681      6.01469     12.20301
  175 1     2      0.00000     21.06044      6.01469      2.84274
  176 1     2      0.00000     23.96607      8.92032      1.98845
  177 1     1      0.00000      7.52287     19.03438      7.52287
  178 1     1      0.00000      7.52287     17.55207      7.52287
  179 1     1      0.00000      8.21408     16.64993      8.21408
  180 1     1      0.00000     22.56863     11.05712      7.52287
  181 1     1      0.00000     22.56863     12.53943      7.52287
  182 1     1      0.00000     21.60690     12.94296      8.48460
  183 1     1      0.00000     21.34841     14.29858      8.74309
  184 1     1      0.00000     22.08897     15.25639      8.00253
  185 1     1      0.00000     22.56863     19.03438     22.56863
  186 1     1      0.00000     22.56863     17.55207     22.56863
  187 1     1      0.00000     21.87742     16.64993     21.87742
  188 1     1      0.00000      7.52287     11.05712     22.56863
  189 1     1      0.00000      7.52287     12.53943     22.56863
  190 1     1      0.00000      8.74309     14.29858     21.34841
  191 1     1      0.00000      8.00253     15.25639     22.08897
  192 1     1      0.00000      7.52287      7.52287     19.03438
  193 1     1      0.00000      7.52287      7.52287     17.55207
  194 1     1      0.00000      8.48460      8.48460     17.14854
  195 1     1      0.00000      8.74309      8.74309     15.79292
  196 1     1      0.00000      8.00253      8.00253     14.83511
  197 1     1      0.00000      7.52287     22.56863     11.05712
  198 1     1      0.00000      7.52287     22.56863     12.53943
  199 1     1      0.00000      8.21408     21.87742     13.44157
  200 1     1      0.00000     22.56863     22.56863     19.03438
  201 1     1      0.00000     22.56863     22.56863     17.55207
  202 1     1      0.00000     21.60690     21.60690     17.14854
  203 1     1      0.00000     21.34841     21.34841     15.79292
  204 1     1      0.00000     22.08897     22.08897     14.83511
  205 1     1      0.00000     22.56863      7.52287     11.05712
  206 1     1      0.00000     22.56863      7.52287     12.53943
  207 1     1      0.00000     21.87742      8.21408     13.44157
  208 1     1      0.00000     19.03438      7.52287      7.52287
  209 1     1      0.00000     17.55207      7.52287      7.52287
  210 1     1      0.00000     17.14854      8.48460      8.48460
  211 1     1      0.00000     15.79292      8.74309      8.74309
  212 1     1      0.00000     14.83511      8.00253      8.00253
  213 1     1      0.00000     11.05712      7.52287     22.56863
  214 1     1      0.00000     12.53943      7.52287     22.56863
  215 1     1      0.00000     13.44157      8.21408     21.87742
  216 1     1      0.00000     19.03438     22.56863     22.56863
  217 1     1      0.00000     17.55207     22.56863     22.56863
  218 1     1      0.00000     17.14854     21.60690     21.60690
  219 1     1      0.00000     15.79292     21.34841     21.34841
  220 1     1      0.00000     14.83511     22.08897     22.08897
  221 1     1      0.00000     11.05712     22.56863      7.52287
  222 1     1      0.00000     12.53943     22.56863      7.52287
  223 1     1      0.00000     13.44157     21.87742      8.21408
  224 1     1      0.00000     19.03438      7.52287     22.56863
  225 1     1      0.00000     17.55207      7.52287     22.56863
  226 1     1      0.00000     17.14854      8.48460     21.60690
  227 1     1      0.00000     15.79292      8.74309     21.34841
  228 1     1      0.00000     14.83511      8.00253     22.08897
  229 1     1      0.00000     11.05712     22.56863     22.56863
  230 1     1      0.00000     12.53943     22.56863     22.56863
  231 1     1      0.00000     13.44157     21.87742     21.87742
  232 1     1      0.00000     19.03438     22.56863      7.52287
  233 1     1      0.00000     17.55207     22.56863      7.52287
  234 1     1      0.00000     17.14854     21.60690      8.48460
  235 1     1      0.00000     15.79292     21.34841      8.74309
  236 1     1      0.00000     14.83511     22.08897      8.00253
  237 1     1      0.00000     11.05712      7.52287      7.52287
  238 1     1      0.00000     12.53943      7.52287      7.52287
  239 1     1      0.00000     13.44157      8.21408      8.21408
  240 1     1      0.00000      7.52287      7.52287     11.05712
  241 1     1      0.00000      7.52287      7.52287     12.53943
  242 1     1      0.00000      8.21408      8.21408     13.44157
  243 1     1      0.00000     22.56863      7.52287     19.03438
  244 1     1      0.00000     22.56863      7.52287     17.55207
  245 1     1      0.00000     21.60690      8.48460     17.14854
  246 1     1      0.00000     21.34841      8.74309     15.79292
  247 1     1      0.00000     22.08897      8.00253     14.83511
  248 1     1      0.00000     22.56863     22.56863     11.05712
  249 1     1      0.00000     22.56863     22.56863     12.53943
  250 1     1      0.00000     21.87742     21.87742     13.44157
  251 1     1      0.00000      7.52287     22.56863     19.03438
  252 1     1      0.00000      7.52287     22.56863     17.55207
  253 1     1      0.00000      8.48460     21.60690     17.14854
  254 1     1      0.00000      8.74309     21.34841     15.79292
  255 1     1      0.00000      8.00253     22.08897     14.83511
  256 1     1      0.00000      7.52287     19.03438     22.56863
  257 1     1      0.00000      7.52287     17.55207     22.56863
  258 1     1      0.00000      7.52287     11.05712      7.52287
  259 1     1      0.00000      7.52287     12.53943      7.52287
  260 1     1      0.00000      8.48460     12.94296      8.48460
  261 1     1      0.00000      8.74309     14.29858      8.74309
  262 1     1      0.00000      8.00253     15.25639      8.00253
  263 1     1      0.00000     22.56863     19.03438      7.52287
  264 1     1      0.00000     22.56863     17.55207      7.52287
  265 1     1      0.00000     21.87742     16.64993      8.21408
  266 1     1      0.00000     22.56863     11.05712     22.56863
  267 1     1      0.00000     22.56863     12.53943     22.56863
  268 1     1      0.00000     21.60690     12.94296     21.60690
  269 1     1      0.00000     21.34841     14.29858     21.34841
  270 1     1      0.00000     22.08897     15.25639     22.08897
  271 1     1      0.00000      7.52287      3.98863     22.56863
  272 1     1      0.00000      7.52287      2.50632     22.56863
  273 1     1      0.00000      8.21408      1.60418     23.25983
  274 1     1      0.00000     22.56863     26.10287     22.56863
  275 1     1      0.00000     22.56863     27.58518     22.56863
  276 1     1      0.00000     21.60690     27.98871     23.53035
  277 1     1      0.00000     21.34841     29.34433     23.78884
  278 1     1      0.00000     22.08897      0.21064     23.04828
  279 1     1      0.00000     22.56863      3.98863      7.52287
  280 1     1      0.00000     22.56863      2.50632      7.52287
  281 1     1      0.00000     21.87742      1.60418      6.83167
  282 1     1      0.00000      7.52287     26.10287      7.52287
  283 1     1      0.00000      7.52287     27.58518      7.52287
  284 1     1      0.00000      8.48460     27.98871      6.56115
  285 1     1      0.00000      8.74309     29.34433      6.30266
  286 1     1      0.00000      8.00253      0.21064      7.04322
  287 1     1      0.00000      7.52287     22.56863      3.98863
  288 1     1      0.00000      7.52287     22.56863      2.50632
  289 1     1      0.00000      8.48460     23.53035      2.10279
  290 1     1      0.00000      8.74309     23.78884      0.74717
  291 1     1      0.00000      8.00253     23.04828     29.88086
  292 1     1      0.00000      7.52287      7.52287     26.10287
  293 1     1      0.00000      7.52287      7.52287     27.58518
  294 1     1      0.00000      8.21408      6.83167     28.48732
  295 1     1      0.00000     22.56863      7.52287      3.98863
  296 1     1      0.00000     22.56863      7.52287      2.50632
  297 1     1      0.00000     21.34841      6.30266      0.74717
  298 1     1      0.00000     22.08897      7.04322     29.88086
  299 1     1      0.00000     22.56863     22.56863     26.10287
  300 1     1      0.00000     22.56863     22.56863     27.58518
  301 1     1      0.00000     21.87742     23.25983     28.48732
  302 1     1      0.00000     16.64993     23.25983     23.25983
  303 1     1      0.00000     12.94296     23.53035      6.56115
  304 1     1      0.00000     14.29858     23.78884      6.30266
  305 1     1      0.00000     15.25639     23.04828      7.04322
  306 1     1      0.00000     16.64993      6.83167      6.83167
  307 1     1      0.00000     12.94296      6.56115     23.53035
  308 1     1      0.00000     14.29858      6.30266     23.78884
  309 1     1      0.00000     15.25639      7.04322     23.04828
  310 1     1      0.00000     16.64993     23.25983      6.83167
  311 1     1      0.00000     12.94296      6.56115      6.56115
  312 1     1      0.00000     14.29858      6.30266      6.30266
  313 1     1      0.00000     15.25639      7.04322      7.04322
  314 1     1      0.00000     16.64993      6.83167     23.25983
  315 1     1      0.00000     12.94296     23.53035     23.53035
  316 1     1      0.00000     14.29858     23.78884     23.78884
  317 1     1      0.00000     15.25639     23.04828     23.04828
  318 1     1      0.00000      7.52287     22.56863     26.10287
  319 1     1      0.00000      7.52287     22.56863     27.58518
  320 1     1      0.00000      8.21408     23.25983     28.48732
  321 1     1      0.00000     22.56863     22.56863      3.98863
  322 1     1      0.00000     22.56863     22.56863      2.50632
  323 1     1      0.00000     21.60690     23.53035      2.10279
  324 1     1      0.00000     21.34841     23.78884      0.74717
  325 1     1      0.00000     22.08897     23.04828     29.88086
  326 1     1      0.00000     22.56863      7.52287     26.10287
  327 1     1      0.00000     22.56863      7.52287     27.58518
  328 1     1      0.00000     21.87742      6.83167     28.48732
  329 1     1      0.00000      7.52287      7.52287      3.98863
  330 1     1      0.00000      7.52287      7.52287      2.50632
  331 1     1      0.00000      8.48460      6.56115      2.10279
  332 1     1      0.00000      8.74309      6.30266      0.74717
  333 1     1      0.00000      8.00253      7.04322     29.88086
  334 1     1      0.00000      7.52287      3.98863      7.52287
  335 1     1      0.00000      7.52287      2.50632      7.52287
  336 1     1      0.00000      8.21408      1.60418      6.83167
  337 1     1      0.00000      7.52287     26.10287     22.56863
  338 1     1      0.00000      7.52287     27.58518     22.56863
  339 1     1      0.00000      8.48460     27.98871     23.53035
  340 1     1      0.00000      8.74309     29.34433     23.78884
  341 1     1      0.00000      8.00253      0.21064     23.04828
  342 1     1      0.00000     22.56863      3.98863     22.56863
  343 1     1      0.00000     22.56863      2.50632     22.56863
  344 1     1      0.00000     21.87742      1.60418     23.25983
  345 1     1      0.00000     22.56863     26.10287      7.52287
  346 1     1      0.00000     22.56863     27.58518      7.52287
  347 1     1      0.00000     21.60690     27.98871      6.56115
  348 1     1      0.00000     21.34841     29.34433      6.30266
  349 1     1      0.00000     22.08897      0.21064      7.04322
  350 1     1      0.00000     23.53035     17.14854     23.53035
  351 1     1      0.00000     23.78884     15.79292     23.78884
  352 1     1      0.00000     23.04828     14.83511     23.04828
  353 1     1      0.00000      6.83167     13.44157     23.25983
  354 1     1      0.00000      6.56115     17.14854      6.56115
  355 1     1      0.00000      6.30266     15.79292      6.30266
  356 1     1      0.00000      7.04322     14.83511      7.04322
  357 1     1      0.00000     23.25983     13.44157      6.83167
  358 1     1      0.00000     23.53035     21.60690     27.98871
  359 1     1      0.00000     23.78884     21.34841     29.34433
  360 1     1      0.00000     23.04828     22.08897      0.21064
  361 1     1      0.00000      6.83167     21.87742      1.60418
  362 1     1      0.00000      6.56115      8.48460     27.98871
  363 1     1      0.00000      6.30266      8.74309     29.34433
  364 1     1      0.00000      7.04322      8.00253      0.21064
  365 1     1      0.00000      3.98863      7.52287     22.56863
  366 1     1      0.00000      2.50632      7.52287     22.56863
  367 1     1      0.00000      2.10279      8.48460     23.53035
  368 1     1      0.00000      0.74717      8.74309     23.78884
  369 1     1      0.00000     29.88086      8.00253     23.04828
  370 1     1      0.00000     26.10287      7.52287      7.52287
  371 1     1      0.00000     27.58518      7.52287      7.52287
  372 1     1      0.00000     28.48732      8.21408      6.83167
  373 1     1      0.00000      3.98863     22.56863      7.52287
  374 1     1      0.00000      2.50632     22.56863      7.52287
  375 1     1      0.00000      2.10279     21.60690      6.56115
  376 1     1      0.00000      0.74717     21.34841      6.30266
  377 1     1      0.00000     29.88086     22.08897      7.04322
  378 1     1      0.00000     26.10287     22.56863     22.56863
  379 1     1      0.00000     27.58518     22.56863     22.56863
  380 1     1      0.00000     28.48732     21.87742     23.25983
  381 1     1      0.00000      3.98863      7.52287      7.52287
  382 1     1      0.00000      2.50632      7.52287      7.52287
  383 1     1      0.00000      2.10279      8.48460      6.56115
  384 1     1      0.00000      0.74717      8.74309      6.30266
  385 1     1      0.00000     29.88086      8.00253      7.04322
  386 1     1      0.00000     26.10287     22.56863      7.52287
  387 1     1      0.00000     27.58518     22.56863      7.52287
  388 1     1      0.00000     28.48732     21.87742      6.83167
  389 1     1      0.00000      3.98863     22.56863     22.56863
  390 1     1      0.00000      2.50632     22.56863     22.56863
  391 1     1      0.00000      2.10279     21.60690     23.53035
  392 1     1      0.00000      0.74717     21.34841     23.78884
  393 1     1      0.00000     29.88086     22.08897     23.04828
  394 1     1      0.00000     26.10287      7.52287     22.56863
  395 1     1      0.00000     27.58518      7.52287     22.56863
  396 1     1      0.00000     28.48732      8.21408     23.25983
  397 1     1      0.00000     23.53035      8.48460     27.98871
  398 1     1      0.00000     23.78884      8.74309     29.34433
  399 1     1      0.00000     23.04828      8.00253      0.21064
  400 1     1      0.00000      6.83167      8.21408      1.60418
  401 1     1      0.00000      6.56115     21.60690     27.98871
  402 1     1      0.00000      6.30266     21.34841     29.34433
  403 1     1      0.00000      7.04322     22.08897      0.21064
  404 1     1      0.00000     23.25983     21.87742      1.60418
  405 1     1      0.00000     23.53035     17.14854      6.56115
  406 1     1      0.00000     23.78884     15.79292      6.30266
  407 1     1      0.00000     23.04828     14.83511      7.04322
  408 1     1      0.00000     23.25983     13.44157     23.25983
  409 1     1      0.00000      6.56115     17.14854     23.53035
  410 1     1      0.00000      6.30266     15.79292     23.78884
  411 1     1      0.00000      7.04322     14.83511     23.04828
  412 1     1      0.00000      6.83167     13.44157      6.83167
  413 1     1      0.00000     23.53035      2.10279      8.48460