Created by Ryther's code on 2024-12-08 14:13:33.825010

    1616 atoms
    1888 bonds
    3264 angles
    4224 dihedrals
    864 impropers

    6 atom types
    12 bond types
    26 angle types
    8 dihedral types
    3 improper types

0.00000000 64.2106 xlo xhi
0.00000000 37.072 ylo yhi
0.00000000 30.0333 zlo zhi
0.0 0.0 0.0 xy xz yz 

Masses 

    1    12.0107
    2    12.0107
    3    1.00794
    4    15.9994
    5    15.9994
    6      65.38

Pair Coeffs

    1       0.10500      3.43085 # C_2 C_2
    2       0.10500      3.43085 # C_R C_R
    3       0.04400      2.57113 # H_ H_
    4       0.06000      3.11815 # O_2_M O_2_M
    5       0.06000      3.11815 # O_3_f O_3_f
    6       0.12400      2.46155 # Zn3f2 Zn3f2

Bond Coeffs

    1     122.16486      2.01487 # O_2_M Zn3f2 bond order=0.5
    2     122.15424      2.01487 # O_3_f Zn3f2 bond order=0.5
    3     357.44038      1.08142 # C_R H_ bond order=1.0
    4     354.48390      1.08442 # C_2 H_ bond order=1.0
    5     462.65505      1.37926 # C_R C_R bond order=1.5
    6     391.66951      1.45800 # C_R C_R bond order=1.0
    7     389.26171      1.46100 # C_2 C_R bond order=1.0
    8     520.53955      1.32611 # C_2 C_R bond order=2.0
    9     625.71923      1.24720 # C_2 C_R bond order=3.0
    10    629.58965      1.24464 # C_R C_R bond order=3.0
    11    714.55744      1.26901 # C_R O_2_M bond order=1.5
    12    523.75938      1.32339 # C_R C_R bond order=2.0

Angle Coeffs

    1  fourier                131.49574      0.34375      0.37500      0.28125 # O_2_M Zn3f2 O_3_f
    2  fourier                131.50718      0.34375      0.37500      0.28125 # O_2_M Zn3f2 O_2_M
    3  cosine/periodic        111.29751           -1            3 # C_R C_R C_R
    4  cosine/periodic        102.18328           -1            3 # C_R C_R C_R
    5  cosine/periodic         57.28902           -1            3 # C_R C_R H_
    6  cosine/periodic        101.85214           -1            3 # C_2 C_R C_R
    7  cosine/periodic        107.57857           -1            3 # C_R C_2 C_R
    8  cosine/periodic        125.22235           -1            3 # C_R C_2 C_R
    9  cosine/periodic         61.51171           -1            3 # C_2 C_R H_
    10 cosine/periodic        117.92729           -1            3 # C_2 C_R C_R
    11 cosine/periodic         68.44536           -1            3 # C_2 C_R H_
    12 cosine/periodic        128.51997           -1            3 # C_2 C_R C_R
    13 cosine/periodic        116.66703           -1            3 # C_R C_2 C_R
    14 cosine/periodic        136.93080           -1            3 # C_R C_2 C_R
    15 cosine/periodic        107.94048           -1            3 # C_2 C_R C_R
    16 cosine/periodic        128.87921           -1            3 # C_R C_R C_R
    17 cosine/periodic        117.38868           -1            3 # C_R C_R C_R
    18 cosine/periodic         61.30451           -1            3 # C_R C_2 H_
    19 cosine/periodic        137.71425           -1            3 # C_R C_R O_2_M
    20 cosine/periodic        206.77843           -1            3 # O_2_M C_R O_2_M
    21 cosine/periodic        137.23527           -1            3 # C_2 C_R O_2_M
    22 cosine/periodic         61.73740           -1            3 # C_R C_R H_
    23 cosine/periodic        118.27773           -1            3 # C_R C_R C_R
    24 cosine/periodic         68.68458           -1            3 # C_R C_R H_
    25 cosine/periodic         42.21907           -1            3 # C_R O_2_M Zn3f2
    26 fourier                 42.55738      0.34375      0.37500      0.28125 # Zn3f2 O_3_f Zn3f2

Dihedral Coeffs

    1       3.36856           -1            2 # X C_R C_R X bond order=1.5
    2       1.25000           -1            2 # X C_R C_R X bond order=1.0
    3       1.25000           -1            2 # X C_2 C_R X bond order=1.0
    4       4.87169           -1            2 # X C_2 C_R X bond order=2.0
    5       6.99025           -1            2 # X C_2 C_R X bond order=3.0
    6       6.99025           -1            2 # X C_R C_R X bond order=3.0
    7       6.73711           -1            2 # X C_R O_2_M X bond order=1.5
    8       4.87169           -1            2 # X C_R C_R X bond order=2.0

Improper Coeffs

    1       2.00000      1.00000     -1.00000      0.00000            1 # C_R X X X O_2 present=False
    2       2.00000      1.00000     -1.00000      0.00000            1 # C_2 X X X O_2 present=False
    3      16.66667      1.00000     -1.00000      0.00000            1 # C_R X X X O_2 present=True

Atoms

    1 1     6      0.00000     59.71586      8.37827      5.95560
    2 1     6      0.00000     27.61056     26.91427      5.95560
    3 1     6      0.00000     59.66128     10.95292      7.81466
    4 1     6      0.00000     27.55598     29.48892      7.81466
    5 1     6      0.00000     27.09687     10.45430      5.95560
    6 1     6      0.00000     59.20217     28.99030      5.95560
    7 1     6      0.00000     24.89445      9.11971      7.81466
    8 1     6      0.00000     56.99975     27.65571      7.81466
    9 1     6      0.00000     41.60847     18.23942      5.95560
   10 1     6      0.00000      9.50317     36.77542      5.95560
   11 1     6      0.00000     43.86547     16.99937      7.81466
   12 1     6      0.00000     11.76017     35.53537      7.81466
   13 1     6      0.00000     43.04358      1.79614      8.34625
   14 1     6      0.00000     10.93828     20.33214      8.34625
   15 1     6      0.00000     27.61056     10.15773      9.06105
   16 1     6      0.00000     59.71586     28.69373      9.06105
   17 1     6      0.00000     27.55598      7.58308      7.20199
   18 1     6      0.00000     59.66128     26.11908      7.20199
   19 1     6      0.00000     12.13901     17.43311      8.34625
   20 1     6      0.00000     44.24431     35.96911      8.34625
   21 1     6      0.00000     59.20217      8.08170      9.06105
   22 1     6      0.00000     27.09687     26.61770      9.06105
   23 1     6      0.00000     56.99975      9.41629      7.20199
   24 1     6      0.00000     24.89445     27.95229      7.20199
   25 1     6      0.00000      9.02801     17.84275      8.34625
   26 1     6      0.00000     41.13331     36.37875      8.34625
   27 1     6      0.00000      9.50317      0.29658      9.06105
   28 1     6      0.00000     41.60847     18.83258      9.06105
   29 1     6      0.00000     11.76017      1.53663      7.20199
   30 1     6      0.00000     43.86547     20.07263      7.20199
   31 1     6      0.00000     21.16702      1.79614     23.36290
   32 1     6      0.00000     53.27232     20.33214     23.36290
   33 1     6      0.00000     36.60004     10.15773     24.07770
   34 1     6      0.00000      4.49474     28.69373     24.07770
   35 1     6      0.00000     36.65462      7.58308     22.21864
   36 1     6      0.00000      4.54932     26.11908     22.21864
   37 1     6      0.00000     52.07159     17.43311     23.36290
   38 1     6      0.00000     19.96629     35.96911     23.36290
   39 1     6      0.00000      5.00843      8.08170     24.07770
   40 1     6      0.00000     37.11373     26.61770     24.07770
   41 1     6      0.00000      7.21085      9.41629     22.21864
   42 1     6      0.00000     39.31615     27.95229     22.21864
   43 1     6      0.00000     55.18259     17.84275     23.36290
   44 1     6      0.00000     23.07729     36.37875     23.36290
   45 1     6      0.00000     54.70743      0.29658     24.07770
   46 1     6      0.00000     22.60213     18.83258     24.07770
   47 1     6      0.00000     52.45043      1.53663     22.21864
   48 1     6      0.00000     20.34513     20.07263     22.21864
   49 1     6      0.00000      4.49474      8.37827     20.97225
   50 1     6      0.00000     36.60004     26.91427     20.97225
   51 1     6      0.00000      4.54932     10.95292     22.83131
   52 1     6      0.00000     36.65462     29.48892     22.83131
   53 1     6      0.00000     37.11373     10.45430     20.97225
   54 1     6      0.00000      5.00843     28.99030     20.97225
   55 1     6      0.00000     39.31615      9.11971     22.83131
   56 1     6      0.00000      7.21085     27.65571     22.83131
   57 1     6      0.00000     22.60213     18.23942     20.97225
   58 1     6      0.00000     54.70743     36.77542     20.97225
   59 1     6      0.00000     20.34513     16.99937     22.83131
   60 1     6      0.00000     52.45043     35.53537     22.83131
   61 1     6      0.00000     42.80707      0.00000      5.71834
   62 1     6      0.00000     10.70198     18.53600      5.71834
   63 1     6      0.00000     21.40353      0.00000     20.73499
   64 1     6      0.00000     53.50862     18.53600     20.73499
   65 1     3      0.00000      5.30444     13.57836      1.03014
   66 1     3      0.00000     37.40974     32.11436      1.03014
   67 1     3      0.00000      2.94855     13.64583      4.68309
   68 1     3      0.00000     35.05385     32.18146      4.68309
   69 1     3      0.00000      1.65214     11.24320      1.34129
   70 1     3      0.00000     33.75744     29.77920      1.34129
   71 1     3      0.00000      6.90713     13.73555      2.38915
   72 1     3      0.00000     39.01243     32.27155      2.38915
   73 1     3      0.00000      8.54579     15.28071      3.49528
   74 1     3      0.00000     40.65109     33.81671      3.49528
   75 1     3      0.00000      5.58953     16.86739      5.89674
   76 1     3      0.00000     37.69483     35.40339      5.89674
   77 1     3      0.00000      3.94638     15.45420      4.83236
   78 1     3      0.00000     36.05168     33.99020      4.83236
   79 1     3      0.00000      0.80970     13.65770      5.06482
   80 1     3      0.00000     32.91500     32.19370      5.06482
   81 1     3      0.00000     63.04454     12.86806      6.25203
   82 1     3      0.00000     30.93924     31.40406      6.25203
   83 1     3      0.00000     62.77999      9.63242      3.74425
   84 1     3      0.00000     30.67469     28.16842      3.74425
   85 1     3      0.00000      0.54258     10.33234      2.51919
   86 1     3      0.00000     32.64788     28.86834      2.51919
   87 1     3      0.00000      2.96653      9.95754      0.00000
   88 1     3      0.00000     35.07183     28.49317      0.00000
   89 1     3      0.00000      4.58528     13.03007     26.55184
   90 1     3      0.00000     36.69058     31.56607     26.55184
   91 1     3      0.00000      4.70022     13.67586     28.82326
   92 1     3      0.00000     36.80552     32.21186     28.82326
   93 1     3      0.00000     61.78151      2.12571      9.45448
   94 1     3      0.00000     29.67621     20.66171      9.45448
   95 1     3      0.00000     60.52555      4.35818      9.45989
   96 1     3      0.00000     28.42025     22.89418      9.45989
   97 1     3      0.00000     56.78464     16.90075      6.70614
   98 1     3      0.00000     24.67934     35.43675      6.70614
   99 1     3      0.00000     57.98602     14.71870      6.70523
  100 1     3      0.00000     25.88072     33.25470      6.70523
  101 1     3      0.00000      3.29529      9.19645     27.57778
  102 1     3      0.00000     35.40059     27.73245     27.57778
  103 1     3      0.00000     17.69387     16.34060      1.03014
  104 1     3      0.00000     49.79917     34.87660      1.03014
  105 1     3      0.00000     18.81306     14.26679      4.68309
  106 1     3      0.00000     50.91836     32.80279      4.68309
  107 1     3      0.00000     21.54201     14.34538      1.34129
  108 1     3      0.00000     53.64731     32.88138      1.34129
  109 1     3      0.00000     16.75640     17.64998      2.38915
  110 1     3      0.00000     48.86170     36.18598      2.38915
  111 1     3      0.00000     14.59828     18.29651      3.49528
  112 1     3      0.00000     46.70358     36.83251      3.49528
  113 1     3      0.00000     14.70230     14.94335      5.89674
  114 1     3      0.00000     46.80760     33.47898      5.89674
  115 1     3      0.00000     16.74805     14.22675      4.83236
  116 1     3      0.00000     48.85335     32.76275      4.83236
  117 1     3      0.00000     19.87190     12.40874      5.06482
  118 1     3      0.00000     51.97720     30.94474      5.06482
  119 1     3      0.00000     21.54394     11.09268      6.25203
  120 1     3      0.00000     53.64924     29.62868      6.25203
  121 1     3      0.00000     24.47836     12.48103      3.74425
  122 1     3      0.00000     56.58366     31.01703      3.74425
  123 1     3      0.00000     22.88594     13.83972      2.51919
  124 1     3      0.00000     54.99124     32.37572      2.51919
  125 1     3      0.00000     21.99855     16.12632      0.00000
  126 1     3      0.00000     54.10385     34.66232      0.00000
  127 1     3      0.00000     18.52861     15.99175     26.55184
  128 1     3      0.00000     50.63327     34.52775     26.55184
  129 1     3      0.00000     17.91155     15.76858     28.82326
  130 1     3      0.00000     50.01685     34.30458     28.82326
  131 1     3      0.00000     31.47860     15.36931      9.45448
  132 1     3      0.00000     63.58390     33.90531      9.45448
  133 1     3      0.00000     30.17320     13.16538      9.45989
  134 1     3      0.00000     62.27850     31.70138      9.45989
  135 1     3      0.00000     21.18115      3.65456      6.70614
  136 1     3      0.00000     53.28645     22.19056      6.70614
  137 1     3      0.00000     22.47050      5.78620      6.70523
  138 1     3      0.00000     54.57580     24.32220      6.70523
  139 1     3      0.00000     22.49297     16.79176     27.57778
  140 1     3      0.00000     54.59827     35.32776     27.57778
  141 1     3      0.00000     41.21229      7.15304      1.03014
  142 1     3      0.00000      9.10699     25.68904      1.03014
  143 1     3      0.00000     42.44834      9.15938      4.68309
  144 1     3      0.00000     10.34304     27.69538      4.68309
  145 1     3      0.00000     41.01580     11.48379      1.34129
  146 1     3      0.00000      8.91050     30.01979      1.34129
  147 1     3      0.00000     40.54707      5.68647      2.38915
  148 1     3      0.00000      8.44177     24.22247      2.38915
  149 1     3      0.00000     41.06589      3.49441      3.49528
  150 1     3      0.00000      8.96059     22.03041      3.49528
  151 1     3      0.00000     43.91812      5.26126      5.89674
  152 1     3      0.00000     11.81282     23.79726      5.89674
  153 1     3      0.00000     43.51552      7.39104      4.83236
  154 1     3      0.00000     11.41022     25.92742      4.83236
  155 1     3      0.00000     43.52772     11.00556      5.06482
  156 1     3      0.00000     11.42242     29.54156      5.06482
  157 1     3      0.00000     43.83208     13.11162      6.25203
  158 1     3      0.00000     11.72678     31.64762      6.25203
  159 1     3      0.00000     41.16221     14.95855      3.74425
  160 1     3      0.00000      9.05691     33.49455      3.74425
  161 1     3      0.00000     40.78208     12.89994      2.51919
  162 1     3      0.00000      8.67678     31.43594      2.51919
  163 1     3      0.00000     39.24552     10.98814      0.00000
  164 1     3      0.00000      7.14022     29.52414      0.00000
  165 1     3      0.00000     41.09671      8.04981     26.55184
  166 1     3      0.00000      8.99141     26.58618     26.55184
  167 1     3      0.00000     41.59884      7.62756     28.82326
  168 1     3      0.00000      9.49354     26.16356     28.82326
  169 1     3      0.00000      3.05514      1.04098      9.45448
  170 1     3      0.00000     35.16044     19.57698      9.45448
  171 1     3      0.00000      5.61650      1.01244      9.45989
  172 1     3      0.00000     37.72180     19.54807      9.45989
  173 1     3      0.00000     50.45412     16.51632      6.70614
  174 1     3      0.00000     18.34882     35.05232      6.70614
  175 1     3      0.00000     47.96403     16.56711      6.70523
  176 1     3      0.00000     15.85873     35.10311      6.70523
  177 1     3      0.00000     38.42170     11.08379     27.57778
  178 1     3      0.00000      6.31704     29.61979     27.57778
  179 1     3      0.00000     37.40974      4.95764     13.98651
  180 1     3      0.00000      5.30444     23.49364     13.98651
  181 1     3      0.00000     35.05385      4.89054     10.33356
  182 1     3      0.00000      2.94855     23.42617     10.33356
  183 1     3      0.00000     33.75744      7.29280     13.67536
  184 1     3      0.00000      1.65214     25.82880     13.67536
  185 1     3      0.00000     39.01243      4.80045     12.62750
  186 1     3      0.00000      6.90713     23.33645     12.62750
  187 1     3      0.00000     40.65109      3.25529     11.52137
  188 1     3      0.00000      8.54579     21.79129     11.52137
  189 1     3      0.00000     37.69483      1.66824      9.11991
  190 1     3      0.00000      5.58953     20.20424      9.11991
  191 1     3      0.00000     36.05168      3.08180     10.18429
  192 1     3      0.00000      3.94638     21.61780     10.18429
  193 1     3      0.00000     32.91500      4.87793      9.95183
  194 1     3      0.00000      0.81034     23.41430      9.95183
  195 1     3      0.00000     30.93924      5.66794      8.76462
  196 1     3      0.00000     63.04454     24.20394      8.76462
  197 1     3      0.00000     30.67469      8.90358     11.27240
  198 1     3      0.00000     62.77999     27.43958     11.27240
  199 1     3      0.00000     32.64788      8.20366     12.49746
  200 1     3      0.00000      0.54258     26.73966     12.49746
  201 1     3      0.00000     35.07183      8.57846     14.99262
  202 1     3      0.00000      2.96717     27.11483     14.99262
  203 1     3      0.00000     36.69058      5.50593     18.49811
  204 1     3      0.00000      4.58528     24.04193     18.49811
  205 1     3      0.00000     36.80552      4.86014     16.22669
  206 1     3      0.00000      4.70022     23.39614     16.22669
  207 1     3      0.00000     29.67621     16.41029      5.56217
  208 1     3      0.00000     61.78151     34.94629      5.56217
  209 1     3      0.00000     28.42025     14.17782      5.55676
  210 1     3      0.00000     60.52555     32.71382      5.55676
  211 1     3      0.00000     24.67934      1.63525      8.31051
  212 1     3      0.00000     56.78464     20.17125      8.31051
  213 1     3      0.00000     25.88072      3.81730      8.31142
  214 1     3      0.00000     57.98602     22.35330      8.31142
  215 1     3      0.00000     35.40059      9.33955     17.47217
  216 1     3      0.00000      3.29529     27.87555     17.47217
  217 1     3      0.00000     49.79917      2.19540     13.98651
  218 1     3      0.00000     17.69387     20.73140     13.98651
  219 1     3      0.00000     50.91836      4.26884     10.33356
  220 1     3      0.00000     18.81306     22.80521     10.33356
  221 1     3      0.00000     53.64731      4.19062     13.67536
  222 1     3      0.00000     21.54201     22.72662     13.67536
  223 1     3      0.00000     48.86170      0.88602     12.62750
  224 1     3      0.00000     16.75640     19.42202     12.62750
  225 1     3      0.00000     46.70358      0.23949     11.52137
  226 1     3      0.00000     14.59828     18.77549     11.52137
  227 1     3      0.00000     46.80760      3.59302      9.11991
  228 1     3      0.00000     14.70230     22.12865      9.11991
  229 1     3      0.00000     48.85335      4.30962     10.18429
  230 1     3      0.00000     16.74805     22.84525     10.18429
  231 1     3      0.00000     51.97720      6.12726      9.95183
  232 1     3      0.00000     19.87190     24.66326      9.95183
  233 1     3      0.00000     53.64924      7.44332      8.76462
  234 1     3      0.00000     21.54394     25.97932      8.76462
  235 1     3      0.00000     56.58366      6.05497     11.27240
  236 1     3      0.00000     24.47836     24.59097     11.27240
  237 1     3      0.00000     54.99124      4.69628     12.49746
  238 1     3      0.00000     22.88594     23.23228     12.49746
  239 1     3      0.00000     54.10385      2.40931     14.99262
  240 1     3      0.00000     21.99855     20.94531     14.99262
  241 1     3      0.00000     50.63327      2.54388     18.49811
  242 1     3      0.00000     18.52861     21.07988     18.49811
  243 1     3      0.00000     50.01685      2.76742     16.22669
  244 1     3      0.00000     17.91155     21.30342     16.22669
  245 1     3      0.00000     63.58390      3.16669      5.56217
  246 1     3      0.00000     31.47860     21.70232      5.56217
  247 1     3      0.00000     62.27850      5.37025      5.55676
  248 1     3      0.00000     30.17320     23.90662      5.55676
  249 1     3      0.00000     53.28645     14.88144      8.31051
  250 1     3      0.00000     21.18115     33.41744      8.31051
  251 1     3      0.00000     54.57580     12.74980      8.31142
  252 1     3      0.00000     22.47050     31.28580      8.31142
  253 1     3      0.00000     54.59827      1.74461     17.47217
  254 1     3      0.00000     22.49297     20.28024     17.47217
  255 1     3      0.00000      9.10699     11.38296     13.98651
  256 1     3      0.00000     41.21229     29.91896     13.98651
  257 1     3      0.00000     10.34304      9.37662     10.33356
  258 1     3      0.00000     42.44834     27.91262     10.33356
  259 1     3      0.00000      8.91050      7.05258     13.67536
  260 1     3      0.00000     41.01580     25.58821     13.67536
  261 1     3      0.00000      8.44177     12.84953     12.62750
  262 1     3      0.00000     40.54707     31.38553     12.62750
  263 1     3      0.00000      8.96059     15.04159     11.52137
  264 1     3      0.00000     41.06589     33.57759     11.52137
  265 1     3      0.00000     11.81282     13.27474      9.11991
  266 1     3      0.00000     43.91812     31.81074      9.11991
  267 1     3      0.00000     11.41022     11.14458     10.18429
  268 1     3      0.00000     43.51552     29.68058     10.18429
  269 1     3      0.00000     11.42242      7.53044      9.95183
  270 1     3      0.00000     43.52772     26.06644      9.95183
  271 1     3      0.00000     11.72678      5.42438      8.76462
  272 1     3      0.00000     43.83208     23.96038      8.76462
  273 1     3      0.00000      9.05691      3.57745     11.27240
  274 1     3      0.00000     41.16221     22.11345     11.27240
  275 1     3      0.00000      8.67678      5.63606     12.49746
  276 1     3      0.00000     40.78208     24.17206     12.49746
  277 1     3      0.00000      7.14022      7.54786     14.99262
  278 1     3      0.00000     39.24552     26.08386     14.99262
  279 1     3      0.00000      8.99141     10.48582     18.49811
  280 1     3      0.00000     41.09671     29.02182     18.49811
  281 1     3      0.00000      9.49354     10.90844     16.22669
  282 1     3      0.00000     41.59884     29.44444     16.22669
  283 1     3      0.00000     35.16044     17.49502      5.56217
  284 1     3      0.00000      3.05514     36.03102      5.56217
  285 1     3      0.00000     37.72180     17.52393      5.55676
  286 1     3      0.00000      5.61650     36.05993      5.55676
  287 1     3      0.00000     18.34882      2.01931      8.31051
  288 1     3      0.00000     50.45412     20.55568      8.31051
  289 1     3      0.00000     15.85873      1.96889      8.31142
  290 1     3      0.00000     47.96403     20.50489      8.31142
  291 1     3      0.00000      6.31640      7.45184     17.47217
  292 1     3      0.00000     38.42170     25.98821     17.47217
  293 1     3      0.00000     26.80086      4.95764     29.00316
  294 1     3      0.00000     58.90616     23.49364     29.00316
  295 1     3      0.00000     29.15611      4.89054     25.35021
  296 1     3      0.00000     61.26141     23.42617     25.35021
  297 1     3      0.00000     30.45316      7.29280     28.69201
  298 1     3      0.00000     62.55846     25.82880     28.69201
  299 1     3      0.00000     25.19817      4.80045     27.64415
  300 1     3      0.00000     57.30347     23.33645     27.64415
  301 1     3      0.00000     23.55887      3.25529     26.53802
  302 1     3      0.00000     55.66417     21.79129     26.53802
  303 1     3      0.00000     26.51513      1.66824     24.13656
  304 1     3      0.00000     58.62043     20.20424     24.13656
  305 1     3      0.00000     28.15892      3.08180     25.20094
  306 1     3      0.00000     60.26422     21.61780     25.20094
  307 1     3      0.00000     31.29496      4.87793     24.96848
  308 1     3      0.00000     63.40026     23.41430     24.96848
  309 1     3      0.00000     33.27072      5.66794     23.78127
  310 1     3      0.00000      1.16606     24.20394     23.78127
  311 1     3      0.00000     33.53527      8.90358     26.28905
  312 1     3      0.00000      1.42997     27.43958     26.28905
  313 1     3      0.00000     31.56272      8.20366     27.51411
  314 1     3      0.00000     63.66802     26.73966     27.51411
  315 1     3      0.00000     29.13813      8.57846     30.00927
  316 1     3      0.00000     61.24343     27.11483     30.00927
  317 1     3      0.00000     27.52002      5.50593      3.48146
  318 1     3      0.00000     59.62532     24.04193      3.48146
  319 1     3      0.00000     27.40508      4.86014      1.21004
  320 1     3      0.00000     59.51038     23.39614      1.21004
  321 1     3      0.00000     34.53439     16.41029     20.57882
  322 1     3      0.00000      2.42909     34.94629     20.57882
  323 1     3      0.00000     35.79035     14.17782     20.57341
  324 1     3      0.00000      3.68505     32.71382     20.57341
  325 1     3      0.00000     39.53126      1.63525     23.32716
  326 1     3      0.00000      7.42596     20.17125     23.32716
  327 1     3      0.00000     38.32988      3.81730     23.32807
  328 1     3      0.00000      6.22458     22.35330     23.32807
  329 1     3      0.00000     28.81001      9.33955      2.45552
  330 1     3      0.00000     60.91531     27.87555      2.45552
  331 1     3      0.00000     14.41143      2.19540     29.00316
  332 1     3      0.00000     46.51673     20.73140     29.00316
  333 1     3      0.00000     13.29159      4.26884     25.35021
  334 1     3      0.00000     45.39689     22.80521     25.35021
  335 1     3      0.00000     10.56264      4.19062     28.69201
  336 1     3      0.00000     42.66794     22.72662     28.69201
  337 1     3      0.00000     15.34890      0.88602     27.64415
  338 1     3      0.00000     47.45420     19.42202     27.64415
  339 1     3      0.00000     17.50638      0.23949     26.53802
  340 1     3      0.00000     49.61168     18.77549     26.53802
  341 1     3      0.00000     17.40236      3.59302     24.13656
  342 1     3      0.00000     49.50766     22.12865     24.13656
  343 1     3      0.00000     15.35661      4.30962     25.20094
  344 1     3      0.00000     47.46191     22.84525     25.20094
  345 1     3      0.00000     12.23340      6.12726     24.96848
  346 1     3      0.00000     44.33870     24.66326     24.96848
  347 1     3      0.00000     10.56136      7.44332     23.78127
  348 1     3      0.00000     42.66602     25.97932     23.78127
  349 1     3      0.00000      7.62694      6.05497     26.28905
  350 1     3      0.00000     39.73224     24.59097     26.28905
  351 1     3      0.00000      9.21936      4.69628     27.51411
  352 1     3      0.00000     41.32466     23.23228     27.51411
  353 1     3      0.00000     10.10675      2.40931     30.00927
  354 1     3      0.00000     42.21141     20.94531     30.00927
  355 1     3      0.00000     13.57669      2.54388      3.48146
  356 1     3      0.00000     45.68199     21.07988      3.48146
  357 1     3      0.00000     14.19375      2.76742      1.21004
  358 1     3      0.00000     46.29905     21.30342      1.21004
  359 1     3      0.00000      0.62605      3.16669     20.57882
  360 1     3      0.00000     32.73135     21.70232     20.57882
  361 1     3      0.00000      1.93210      5.37025     20.57341
  362 1     3      0.00000     34.03675     23.90662     20.57341
  363 1     3      0.00000     10.92415     14.88144     23.32716
  364 1     3      0.00000     43.02881     33.41744     23.32716
  365 1     3      0.00000      9.63480     12.74980     23.32807
  366 1     3      0.00000     41.74010     31.28580     23.32807
  367 1     3      0.00000      9.61168      1.74461      2.45552
  368 1     3      0.00000     41.71698     20.28024      2.45552
  369 1     3      0.00000     55.10361     11.38296     29.00316
  370 1     3      0.00000     22.99831     29.91896     29.00316
  371 1     3      0.00000     53.86756      9.37662     25.35021
  372 1     3      0.00000     21.76226     27.91262     25.35021
  373 1     3      0.00000     55.29945      7.05258     28.69201
  374 1     3      0.00000     23.19415     25.58821     28.69201
  375 1     3      0.00000     55.76883     12.84953     27.64415
  376 1     3      0.00000     23.66353     31.38553     27.64415
  377 1     3      0.00000     55.25001     15.04159     26.53802
  378 1     3      0.00000     23.14471     33.57759     26.53802
  379 1     3      0.00000     52.39778     13.27474     24.13656
  380 1     3      0.00000     20.29248     31.81074     24.13656
  381 1     3      0.00000     52.79973     11.14458     25.20094
  382 1     3      0.00000     20.69443     29.68058     25.20094
  383 1     3      0.00000     52.78753      7.53044     24.96848
  384 1     3      0.00000     20.68223     26.06644     24.96848
  385 1     3      0.00000     52.48382      5.42438     23.78127