Created by Ryther's code on 2024-12-08 14:43:56.344635

    170 atoms
    198 bonds
    372 angles
    408 dihedrals
    84 impropers

    6 atom types
    7 bond types
    11 angle types
    3 dihedral types
    2 improper types

0.00000000 10.1 xlo xhi
0.00000000 8.74685658 ylo yhi
0.00000000 27.8 zlo zhi
-5.05 0.0 0.0 xy xz yz 

Masses 

    1    12.0107
    2    51.9961
    3    1.00794
    4    15.9994
    5    15.9994
    6    15.9994

Pair Coeffs

    1       0.10500      3.43085 # C_R C_R
    2       0.01500      2.69319 # Cr4+2 Cr4+2
    3       0.04400      2.57113 # H_ H_
    4       0.06000      3.11815 # O_1 O_1
    5       0.06000      3.11815 # O_2_M O_2_M
    6       0.06000      3.11815 # O_3_f O_3_f

Bond Coeffs

    1     321.52560      1.80193 # Cr4+2 O_2_M bond order=0.5
    2     321.49764      1.80193 # Cr4+2 O_3_f bond order=0.5
    3     318.74651      1.80709 # Cr4+2 O_1 bond order=0.5
    4     357.44038      1.08142 # C_R H_ bond order=1.0
    5     391.66951      1.45800 # C_R C_R bond order=1.0
    6     714.55744      1.26901 # C_R O_2_M bond order=1.5
    7     462.65505      1.37926 # C_R C_R bond order=1.5

Angle Coeffs

    1  cosine/periodic        159.22366            1            4 # O_2_M Cr4+2 O_2_M
    2  cosine/periodic        159.20982            1            4 # O_2_M Cr4+2 O_3_f
    3  cosine/periodic        158.52553            1            4 # O_1 Cr4+2 O_2_M
    4  cosine/periodic        158.51174            1            4 # O_1 Cr4+2 O_3_f
    5  cosine/periodic        137.71425           -1            3 # C_R C_R O_2_M
    6  cosine/periodic        206.77843           -1            3 # O_2_M C_R O_2_M
    7  cosine/periodic        102.18328           -1            3 # C_R C_R C_R
    8  cosine/periodic        111.29751           -1            3 # C_R C_R C_R
    9  cosine/periodic         57.28902           -1            3 # C_R C_R H_
    10 fourier                210.85583      0.34375      0.37500      0.28125 # Cr4+2 O_3_f Cr4+2
    11 cosine/periodic         99.93122           -1            3 # C_R O_2_M Cr4+2

Dihedral Coeffs

    1       1.25000           -1            2 # X C_R C_R X bond order=1.0
    2       6.73711           -1            2 # X C_R O_2_M X bond order=1.5
    3       3.36856           -1            2 # X C_R C_R X bond order=1.5

Improper Coeffs

    1      16.66667      1.00000     -1.00000      0.00000            1 # C_R X X X O_2 present=True
    2       2.00000      1.00000     -1.00000      0.00000            1 # C_R X X X O_2 present=False

Atoms

    1 1     2      0.00000      6.12312      1.31115      6.95000
    2 1     2      0.00000      5.90294      4.64720      6.95000
    3 1     2      0.00000      3.12393      2.78850      6.95000
    4 1     2      0.00000     -1.92607      5.95836     20.85000
    5 1     2      0.00000      1.07313      7.43570     20.85000
    6 1     2      0.00000      0.85294      4.09965     20.85000
    7 1     3      0.00000      2.63610      3.48825     24.43342
    8 1     3      0.00000      5.76104      0.53881     24.43342
    9 1     3      0.00000      6.75286      4.71980     24.43342
   10 1     3      0.00000      2.63610      3.48825     17.26658
   11 1     3      0.00000      5.76104      0.53881     17.26658
   12 1     3      0.00000      6.75286      4.71980     17.26658
   13 1     3      0.00000      1.70286      4.02705      3.36658
   14 1     3      0.00000     -2.41390      5.25861      3.36658
   15 1     3      0.00000      0.71104      8.20805      3.36658
   16 1     3      0.00000      1.70286      4.02705     10.53342
   17 1     3      0.00000     -2.41390      5.25861     10.53342
   18 1     3      0.00000      0.71104      8.20805     10.53342
   19 1     3      0.00000      2.93355      3.46288     26.85202
   20 1     3      0.00000      5.63429      0.80908     26.85202
   21 1     3      0.00000      6.58217      4.47489     26.85202
   22 1     3      0.00000      2.93355      3.46288     14.84798
   23 1     3      0.00000      5.63429      0.80908     14.84798
   24 1     3      0.00000      6.58217      4.47489     14.84798
   25 1     3      0.00000      1.53217      4.27196      0.94798
   26 1     3      0.00000     -2.11646      5.28398      0.94798
   27 1     3      0.00000      0.58429      7.93777      0.94798
   28 1     3      0.00000      1.53217      4.27196     12.95202
   29 1     3      0.00000     -2.11646      5.28398     12.95202
   30 1     3      0.00000      0.58429      7.93777     12.95202
   31 1     3      0.00000      3.49914      7.73834     26.84368
   32 1     3      0.00000     -3.40117      7.90803     26.84368
   33 1     3      0.00000     -0.09797      1.84734     26.84368
   34 1     3      0.00000      3.49914      7.73834     14.85632
   35 1     3      0.00000     -3.40117      7.90803     14.85632
   36 1     3      0.00000     -0.09797      1.84734     14.85632
   37 1     3      0.00000      4.95203      6.89952      0.95632
   38 1     3      0.00000      8.54914      1.00851      0.95632
   39 1     3      0.00000      1.64882      0.83882      0.95632
   40 1     3      0.00000      4.95203      6.89952     12.94368
   41 1     3      0.00000      8.54914      1.00851     12.94368
   42 1     3      0.00000      1.64882      0.83882     12.94368
   43 1     3      0.00000      3.19160      7.77246     24.41396
   44 1     3      0.00000     -3.27694      7.62463     24.41396
   45 1     3      0.00000      0.08535      2.09662     24.41396
   46 1     3      0.00000      3.19160      7.77246     17.28604
   47 1     3      0.00000     -3.27694      7.62463     17.28604
   48 1     3      0.00000      0.08535      2.09662     17.28604
   49 1     3      0.00000      5.13535      6.65024      3.38604
   50 1     3      0.00000      8.24160      0.97440      3.38604
   51 1     3      0.00000      1.77306      1.12222      3.38604
   52 1     3      0.00000      5.13535      6.65024     10.51396
   53 1     3      0.00000      8.24160      0.97440     10.51396
   54 1     3      0.00000      1.77306      1.12222     10.51396
   55 1     1      0.00000      3.99607      0.78284      4.99844
   56 1     1      0.00000      7.42401      3.06927      4.99844
   57 1     1      0.00000      3.72993      4.89474      4.99844
   58 1     1      0.00000      3.99607      0.78284      8.90156
   59 1     1      0.00000      7.42401      3.06927      8.90156
   60 1     1      0.00000      3.72993      4.89474      8.90156
   61 1     1      0.00000     -1.32007      3.85212     22.80156
   62 1     1      0.00000     -1.05394      7.96401     22.80156
   63 1     1      0.00000      2.37400      5.67758     22.80156
   64 1     1      0.00000     -1.32007      3.85212     18.89844
   65 1     1      0.00000     -1.05394      7.96401     18.89844
   66 1     1      0.00000      2.37400      5.67758     18.89844
   67 1     1      0.00000      2.88860      5.63298     24.21102
   68 1     1      0.00000     -1.27260      8.43197     24.21102
   69 1     1      0.00000     -1.61600      3.42877     24.21102
   70 1     1      0.00000      2.88860      5.63298     17.48898
   71 1     1      0.00000     -1.27260      8.43197     17.48898
   72 1     1      0.00000     -1.61600      3.42877     17.48898
   73 1     1      0.00000      3.43400      5.31809      3.58898
   74 1     1      0.00000      7.93860      3.11388      3.58898
   75 1     1      0.00000      3.77740      0.31489      3.58898
   76 1     1      0.00000      3.43400      5.31809     10.31102
   77 1     1      0.00000      7.93860      3.11388     10.31102
   78 1     1      0.00000      3.77740      0.31489     10.31102
   79 1     1      0.00000      2.85476      4.42329     24.93382
   80 1     1      0.00000      4.84194      0.26066     24.93382
   81 1     1      0.00000      7.45329      4.06291     24.93382
   82 1     1      0.00000      2.85476      4.42329     16.76618
   83 1     1      0.00000      4.84194      0.26066     16.76618
   84 1     1      0.00000      7.45329      4.06291     16.76618
   85 1     1      0.00000      2.40329      4.68394      2.86618
   86 1     1      0.00000     -2.19523      4.32357      2.86618
   87 1     1      0.00000     -0.20806      8.48620      2.86618
   88 1     1      0.00000      2.40329      4.68394     11.03382
   89 1     1      0.00000     -2.19523      4.32357     11.03382
   90 1     1      0.00000     -0.20806      8.48620     11.03382
   91 1     1      0.00000      3.00727      4.40929     26.32938
   92 1     1      0.00000      4.77780      0.39973     26.32938
   93 1     1      0.00000      7.36492      3.93783     26.32938
   94 1     1      0.00000      3.00727      4.40929     15.37062
   95 1     1      0.00000      4.77780      0.39973     15.37062
   96 1     1      0.00000      7.36492      3.93783     15.37062
   97 1     1      0.00000      2.31492      4.80902      1.47062
   98 1     1      0.00000     -2.04272      4.33757      1.47062
   99 1     1      0.00000     -0.27220      8.34713      1.47062
  100 1     1      0.00000      2.31492      4.80902     12.42938
  101 1     1      0.00000     -2.04272      4.33757     12.42938
  102 1     1      0.00000     -0.27220      8.34713     12.42938
  103 1     1      0.00000      3.21281      5.60149     27.04940
  104 1     1      0.00000     -1.40743      8.72849     27.04940
  105 1     1      0.00000     -1.80537      3.16374     27.04940
  106 1     1      0.00000      3.21281      5.60149     14.65060
  107 1     1      0.00000     -1.40743      8.72849     14.65060
  108 1     1      0.00000     -1.80537      3.16374     14.65060
  109 1     1      0.00000      3.24463      5.58312      0.75060
  110 1     1      0.00000      8.26281      3.14537      0.75060
  111 1     1      0.00000      3.64256      0.01837      0.75060
  112 1     1      0.00000      3.24463      5.58312     13.14940
  113 1     1      0.00000      8.26281      3.14537     13.14940
  114 1     1      0.00000      3.64256      0.01837     13.14940
  115 1     1      0.00000      3.33805      6.80156     26.32382
  116 1     1      0.00000     -2.50935      8.23691     26.32382
  117 1     1      0.00000     -0.82871      2.45524     26.32382
  118 1     1      0.00000      3.33805      6.80156     15.37618
  119 1     1      0.00000     -2.50935      8.23691     15.37618
  120 1     1      0.00000     -0.82871      2.45524     15.37618
  121 1     1      0.00000      4.22129      6.29161      1.47618
  122 1     1      0.00000      8.38805      1.94530      1.47618
  123 1     1      0.00000      2.54066      0.50994      1.47618
  124 1     1      0.00000      4.22129      6.29161     12.42382
  125 1     1      0.00000      8.38805      1.94530     12.42382
  126 1     1      0.00000      2.54066      0.50994     12.42382
  127 1     1      0.00000      3.16837      6.81905     24.92548
  128 1     1      0.00000     -2.43966      8.08122     24.92548
  129 1     1      0.00000     -0.72872      2.59344     24.92548
  130 1     1      0.00000      3.16837      6.81905     16.77452
  131 1     1      0.00000     -2.43966      8.08122     16.77452
  132 1     1      0.00000     -0.72872      2.59344     16.77452
  133 1     1      0.00000      4.32128      6.15341      2.87452
  134 1     1      0.00000      8.21837      1.92781      2.87452
  135 1     1      0.00000      2.61035      0.66564      2.87452
  136 1     1      0.00000      4.32128      6.15341     11.02548
  137 1     1      0.00000      8.21837      1.92781     11.02548
  138 1     1      0.00000      2.61035      0.66564     11.02548
  139 1     4      0.00000     -3.21635      6.40882      6.95000
  140 1     4      0.00000      1.10797      2.75701      6.95000
  141 1     4      0.00000      2.10838      8.32788      6.95000
  142 1     4      0.00000      7.15838      0.41897     20.85000
  143 1     4      0.00000      1.83366      2.33803     20.85000
  144 1     4      0.00000      6.15797      5.98985     20.85000
  145 1     6      0.00000      5.05000      2.91562      6.95000
  146 1     6      0.00000      0.00000      5.83124     20.85000
  147 1     5      0.00000      3.11029      1.51058      5.54888
  148 1     5      0.00000      7.23665      1.93830      5.54888
  149 1     5      0.00000      4.80305      5.29797      5.54888
  150 1     5      0.00000      3.11029      1.51058      8.35112
  151 1     5      0.00000      7.23665      1.93830      8.35112
  152 1     5      0.00000      4.80305      5.29797      8.35112
  153 1     5      0.00000     -0.24694      3.44889     22.25112
  154 1     5      0.00000     -1.93971      7.23627     22.25112
  155 1     5      0.00000      2.18665      6.80855     22.25112
  156 1     5      0.00000     -0.24694      3.44889     19.44888
  157 1     5      0.00000     -1.93971      7.23627     19.44888
  158 1     5      0.00000      2.18665      6.80855     19.44888
  159 1     5      0.00000      5.11262      0.53006      5.55166
  160 1     5      0.00000      7.08465      4.16263      5.55166
  161 1     5      0.00000      2.95274      4.05417      5.55166
  162 1     5      0.00000      5.11262      0.53006      8.34834
  163 1     5      0.00000      7.08465      4.16263      8.34834
  164 1     5      0.00000      2.95274      4.05417      8.34834
  165 1     5      0.00000     -2.09727      4.69269     22.24834
  166 1     5      0.00000      0.06262      8.21680     22.24834
  167 1     5      0.00000      2.03464      4.58423     22.24834
  168 1     5      0.00000     -2.09727      4.69269     19.45166
  169 1     5      0.00000      0.06262      8.21680     19.45166
  170 1     5      0.00000      2.03464      4.58423     19.45166

Bonds

    1 1     1      162   
    2 1     1      151   
    3 1     1      148   
    4 1     1      159   
    5 1     2      152   
    6 1     2      160   
    7 1     2      163   
    8 1     2      149   
    9 1     3      150   
   10 1     3      161   
   11 1     3      147   
   12 1     3      164   
   13 1     4      157   
   14 1     4      168   
   15 1     4      165   
   16 1     4      154   
   17 1     5      158   
   18 1     5      169   
   19 1     5      166   
   20 1     5      155   
   21 1     6      156   
   22 1     6      167   
   23 1     6      153   
   24 1     6      170   
   25 2     1      145   
   26 2     2      145   
   27 2     3      145   
   28 2     4      146   
   29 2     5      146   
   30 2     6      146   
   31 3     1      141   
   32 3     2      139   
   33 3     3      140   
   34 3     4      144   
   35 3     5      142   
   36 3     6      143   
   37 4     7      79    
   38 4     8      80    
   39 4     9      81    
   40 4     10     82    
   41 4     11     83    
   42 4     12     84    
   43 4     13     85    
   44 4     14     86    
   45 4     15     87    
   46 4     16     88    
   47 4     17     89    
   48 4     18     90    
   49 4     19     91    
   50 4     20     92    
   51 4     21     93    
   52 4     22     94    
   53 4     23     95    
   54 4     24     96    
   55 4     25     97    
   56 4     26     98    
   57 4     27     99    
   58 4     28     100   
   59 4     29     101   
   60 4     30     102   
   61 4     31     115   
   62 4     32     116   
   63 4     33     117   
   64 4     34     118   
   65 4     35     119   
   66 4     36     120   
   67 4     37     121   
   68 4     38     122   
   69 4     39     123   
   70 4     40     124   
   71 4     41     125   
   72 4     42     126   
   73 4     43     127   
   74 4     44     128   
   75 4     45     129   
   76 4     46     130   
   77 4     47     131   
   78 4     48     132   
   79 4     49     133   
   80 4     50     134   
   81 4     51     135   
   82 4     52     136   
   83 4     53     137   
   84 4     54     138   
   85 5     55     75    
   86 5     56     74    
   87 5     57     73    
   88 5     58     78    
   89 5     59     77    
   90 5     60     76    
   91 5     61     69    
   92 5     62     68    
   93 5     63     67    
   94 5     64     72    
   95 5     65     71    
   96 5     66     70    
   97 5     103    109   
   98 5     104    111   
   99 5     105    110   
  100 5     106    112   
  101 5     107    114   
  102 5     108    113   
  103 6     55     147   
  104 6     55     159   
  105 6     56     148   
  106 6     56     160   
  107 6     57     161   
  108 6     57     149   
  109 6     58     162   
  110 6     58     150   
  111 6     59     151   
  112 6     59     163   
  113 6     60     152   
  114 6     60     164   
  115 6     61     165   
  116 6     61     153   
  117 6     62     154   
  118 6     62     166   
  119 6     63     155   
  120 6     63     167   
  121 6     64     156   
  122 6     64     168   
  123 6     65     169   
  124 6     65     157   
  125 6     66     158   
  126 6     66     170   
  127 7     67     127   
  128 7     67     79    
  129 7     68     80    
  130 7     68     128   
  131 7     69     129   
  132 7     69     81    
  133 7     70     130   
  134 7     70     82    
  135 7     71     131   
  136 7     71     83    
  137 7     72     132   
  138 7     72     84    
  139 7     73     133   
  140 7     73     85    
  141 7     74     134   
  142 7     74     86    
  143 7     75     135   
  144 7     75     87    
  145 7     76     136   
  146 7     76     88    
  147 7     77     137   
  148 7     77     89    
  149 7     78     138   
  150 7     78     90    
  151 7     79     91    
  152 7     80     92    
  153 7     81     93    
  154 7     82     94    
  155 7     83     95    
  156 7     84     96    
  157 7     85     97    
  158 7     86     98    
  159 7     87     99    
  160 7     88     100   
  161 7     89     101   
  162 7     90     102   
  163 7     91     103   
  164 7     92     104   
  165 7     93     105   
  166 7     94     106   
  167 7     95     107   
  168 7     96     108   
  169 7     97     109   
  170 7     98     110   
  171 7     99     111   
  172 7     100    112   
  173 7     101    113   
  174 7     102    114   
  175 7     103    115   
  176 7     104    116   
  177 7     105    117   
  178 7     106    118   
  179 7     107    119   
  180 7     108    120   
  181 7     109    121   
  182 7     110    122   
  183 7     111    123   
  184 7     112    124   
  185 7     113    125   
  186 7     114    126   
  187 7     115    127   
  188 7     116    128   
  189 7     117    129   
  190 7     118    130   
  191 7     119    131   
  192 7     120    132   
  193 7     121    133   
  194 7     122    134   
  195 7     123    135   
  196 7     124    136   
  197 7     125    137   
  198 7     126    138   

Angles

    1 1     162    1      151   
    2 1     162    1      148   
    3 1     162    1      159   
    4 1     151    1      148   
    5 1     151    1      159   
    6 1     148    1      159   
    7 1     152    2      160   
    8 1     152    2      163   
    9 1     152    2      149   
   10 1     160    2      163   
   11 1     160    2      149   
   12 1     163    2      149   
   13 1     150    3      161   
   14 1     150    3      147   
   15 1     150    3      164   
   16 1     161    3      147   
   17 1     161    3      164   
   18 1     147    3      164   
   19 1     157    4      168   
   20 1     157    4      165   
   21 1     157    4      154   
   22 1     168    4      165   
   23 1     168    4      154   
   24 1     165    4      154   
   25 1     158    5      169   
   26 1     158    5      166   
   27 1     158    5      155   
   28 1     169    5      166   
   29 1     169    5      155   
   30 1     166    5      155   
   31 1     156    6      167   
   32 1     156    6      153   
   33 1     156    6      170   
   34 1     167    6      153   
   35 1     167    6      170   
   36 1     153    6      170   
   37 2     162    1      145   
   38 2     151    1      145   
   39 2     148    1      145   
   40 2     159    1      145   
   41 2     152    2      145   
   42 2     160    2      145   
   43 2     163    2      145   
   44 2     149    2      145   
   45 2     150    3      145   
   46 2     161    3      145   
   47 2     147    3      145   
   48 2     164    3      145   
   49 2     157    4      146   
   50 2     168    4      146   
   51 2     165    4      146   
   52 2     154    4      146   
   53 2     158    5      146   
   54 2     169    5      146   
   55 2     166    5      146   
   56 2     155    5      146   
   57 2     156    6      146   
   58 2     167    6      146   
   59 2     153    6      146   
   60 2     170    6      146   
   61 3     141    1      162   
   62 3     141    1      151   
   63 3     141    1      148   
   64 3     141    1      159   
   65 3     139    2      152   
   66 3     139    2      160   
   67 3     139    2      163   
   68 3     139    2      149   
   69 3     140    3      150   
   70 3     140    3      161   
   71 3     140    3      147   
   72 3     140    3      164   
   73 3     144    4      157   
   74 3     144    4      168   
   75 3     144    4      165   
   76 3     144    4      154   
   77 3     142    5      158   
   78 3     142    5      169   
   79 3     142    5      166   
   80 3     142    5      155   
   81 3     143    6      156   
   82 3     143    6      167   
   83 3     143    6      153   
   84 3     143    6      170   
   85 4     141    1      145   
   86 4     139    2      145   
   87 4     140    3      145   
   88 4     144    4      146   
   89 4     142    5      146   
   90 4     143    6      146   
   91 5     75     55     147   
   92 5     75     55     159   
   93 5     74     56     148   
   94 5     74     56     160   
   95 5     73     57     161   
   96 5     73     57     149   
   97 5     78     58     162   
   98 5     78     58     150   
   99 5     77     59     151   
  100 5     77     59     163   
  101 5     76     60     152   
  102 5     76     60     164   
  103 5     69     61     165   
  104 5     69     61     153   
  105 5     68     62     154   
  106 5     68     62     166   
  107 5     67     63     155   
  108 5     67     63     167   
  109 5     72     64     156   
  110 5     72     64     168   
  111 5     71     65     169   
  112 5     71     65     157   
  113 5     70     66     158   
  114 5     70     66     170   
  115 6     147    55     159   
  116 6     148    56     160   
  117 6     161    57     149   
  118 6     162    58     150   
  119 6     151    59     163   
  120 6     152    60     164   
  121 6     165    61     153   
  122 6     154    62     166   
  123 6     155    63     167   
  124 6     156    64     168   
  125 6     169    65     157   
  126 6     158    66     170   
  127 7     63     67     127   
  128 7     63     67     79    
  129 7     62     68     80    
  130 7     62     68     128   
  131 7     61     69     129   
  132 7     61     69     81    
  133 7     66     70     130   
  134 7     66     70     82    
  135 7     65     71     131   
  136 7     65     71     83    
  137 7     64     72     132   
  138 7     64     72     84    
  139 7     57     73     133   
  140 7     57     73     85    
  141 7     56     74     134   
  142 7     56     74     86    
  143 7     55     75     135   
  144 7     55     75     87    
  145 7     60     76     136   
  146 7     60     76     88    
  147 7     59     77     137   
  148 7     59     77     89    
  149 7     58     78     138   
  150 7     58     78     90    
  151 7     91     103    109   
  152 7     109    103    115   
  153 7     92     104    111   
  154 7     111    104    116   
  155 7     93     105    110   
  156 7     117    105    110   
  157 7     94     106    112   
  158 7     112    106    118   
  159 7     95     107    114   
  160 7     119    107    114   
  161 7     96     108    113   
  162 7     120    108    113   
  163 7     97     109    103   
  164 7     103    109    121   
  165 7     98     110    105   
  166 7     105    110    122   
  167 7     99     111    104   
  168 7     104    111    123   
  169 7     100    112    106   
  170 7     106    112    124   
  171 7     101    113    108   
  172 7     108    113    125   
  173 7     102    114    107   
  174 7     107    114    126   
  175 8     127    67     79    
  176 8     80     68     128   
  177 8     129    69     81    
  178 8     130    70     82    
  179 8     131    71     83    
  180 8     132    72     84    
  181 8     133    73     85    
  182 8     134    74     86    
  183 8     135    75     87    
  184 8     136    76     88    
  185 8     137    77     89    
  186 8     138    78     90    
  187 8     67     79     91    
  188 8     68     80     92    
  189 8     69     81     93    
  190 8     70     82     94    
  191 8     71     83     95    
  192 8     72     84     96    
  193 8     73     85     97    
  194 8     74     86     98    
  195 8     75     87     99    
  196 8     76     88     100   
  197 8     77     89     101   
  198 8     78     90     102   
  199 8     79     91     103   
  200 8     80     92     104   
  201 8     81     93     105   
  202 8     82     94     106   
  203 8     83     95     107   
  204 8     84     96     108   
  205 8     85     97     109   
  206 8     86     98     110   
  207 8     87     99     111   
  208 8     88     100    112   
  209 8     89     101    113   
  210 8     90     102    114   
  211 8     91     103    115   
  212 8     92     104    116   
  213 8     93     105    117   
  214 8     94     106    118   
  215 8     95     107    119   
  216 8     96     108    120   
  217 8     97     109    121   
  218 8     98     110    122   
  219 8     99     111    123   
  220 8     100    112    124   
  221 8     101    113    125   
  222 8     102    114    126   
  223 8     103    115    127   
  224 8     104    116    128   
  225 8     105    117    129   
  226 8     106    118    130   
  227 8     107    119    131   
  228 8     108    120    132   
  229 8     109    121    133   
  230 8     110    122    134   
  231 8     111    123    135   
  232 8     112    124    136   
  233 8     113    125    137   
  234 8     114    126    138   
  235 8     67     127    115   
  236 8     68     128    116   
  237 8     69     129    117   
  238 8     70     130    118   
  239 8     71     131    119   
  240 8     72     132    120   
  241 8     73     133    121   
  242 8     74     134    122   
  243 8     75     135    123   
  244 8     76     136    124   
  245 8     77     137    125   
  246 8     78     138    126   
  247 9     67     79     7     
  248 9     91     79     7     
  249 9     68     80     8     
  250 9     92     80     8     
  251 9     69     81     9     
  252 9     93     81     9     
  253 9     70     82     10    
  254 9     94     82     10    
  255 9     71     83     11    
  256 9     95     83     11    
  257 9     72     84     12    
  258 9     96     84     12    
  259 9     73     85     13    
  260 9     97     85     13    
  261 9     74     86     14    
  262 9     98     86     14    
  263 9     75     87     15    
  264 9     99     87     15    
  265 9     76     88     16    
  266 9     100    88     16    
  267 9     77     89     17    
  268 9     101    89     17    
  269 9     78     90     18    
  270 9     102    90     18    
  271 9     79     91     19    
  272 9     103    91     19    
  273 9     80     92     20    
  274 9     104    92     20    
  275 9     81     93     21    
  276 9     105    93     21    
  277 9     82     94     22    
  278 9     106    94     22    
  279 9     83     95     23    
  280 9     107    95     23    
  281 9     84     96     24    
  282 9     108    96     24    
  283 9     85     97     25    
  284 9     109    97     25    
  285 9     86     98     26    
  286 9     110    98     26    
  287 9     87     99     27    
  288 9     111    99     27    
  289 9     88     100    28    
  290 9     112    100    28    
  291 9     89     101    29    
  292 9     113    101    29    
  293 9     90     102    30    
  294 9     114    102    30    
  295 9     103    115    31    
  296 9     127    115    31    
  297 9     104    116    32    
  298 9     128    116    32    
  299 9     105    117    33    
  300 9     129    117    33    
  301 9     106    118    34    
  302 9     130    118    34    
  303 9     107    119    35    
  304 9     131    119    35    
  305 9     108    120    36    
  306 9     132    120    36    
  307 9     109    121    37    
  308 9     133    121    37    
  309 9     110    122    38    
  310 9     134    122    38    
  311 9     111    123    39    
  312 9     135    123    39    
  313 9     112    124    40    
  314 9     136    124    40    
  315 9     113    125    41    
  316 9     137    125    41    
  317 9     114    126    42    
  318 9     138    126    42    
  319 9     67     127    43    
  320 9     115    127    43    
  321 9     68     128    44    
  322 9     116    128    44    
  323 9     69     129    45    
  324 9     117    129    45    
  325 9     70     130    46    
  326 9     118    130    46    
  327 9     71     131    47    
  328 9     119    131    47    
  329 9     72     132    48    
  330 9     120    132    48    
  331 9     73     133    49    
  332 9     121    133    49    
  333 9     74     134    50    
  334 9     122    134    50    