Created by Ryther's code on 2024-12-08 14:40:29.192132

    608 atoms
    736 bonds
    1472 angles
    1280 dihedrals
    256 impropers

    5 atom types
    7 bond types
    11 angle types
    3 dihedral types
    2 improper types

0.00000000 39.37 xlo xhi
0.00000000 15.698 ylo yhi
0.00000000 13.10792514 zlo zhi
0.0 -3.48774921 0.0 xy xz yz 

Masses 

    1    12.0107
    2    51.9961
    3    1.00794
    4    15.9994
    5    15.9994

Pair Coeffs

    1       0.10500      3.43085 # C_R C_R
    2       0.01500      2.69319 # Cr4+2 Cr4+2
    3       0.04400      2.57113 # H_ H_
    4       0.06000      3.11815 # O_2_M O_2_M
    5       0.06000      3.11815 # O_3_f O_3_f

Bond Coeffs

    1     321.49764      1.80193 # Cr4+2 O_3_f bond order=0.5
    2     321.52560      1.80193 # Cr4+2 O_2_M bond order=0.5
    3     602.38274      0.96643 # H_ O_3_f bond order=1.0
    4     357.44038      1.08142 # C_R H_ bond order=1.0
    5     714.55744      1.26901 # C_R O_2_M bond order=1.5
    6     391.66951      1.45800 # C_R C_R bond order=1.0
    7     462.65505      1.37926 # C_R C_R bond order=1.5

Angle Coeffs

    1  cosine/periodic        159.19597            1            4 # O_3_f Cr4+2 O_3_f
    2  cosine/periodic        159.20982            1            4 # O_2_M Cr4+2 O_3_f
    3  cosine/periodic        159.22366            1            4 # O_2_M Cr4+2 O_2_M
    4  cosine/periodic        206.77843           -1            3 # O_2_M C_R O_2_M
    5  cosine/periodic        137.71425           -1            3 # C_R C_R O_2_M
    6  cosine/periodic         57.28902           -1            3 # C_R C_R H_
    7  cosine/periodic        111.29751           -1            3 # C_R C_R C_R
    8  cosine/periodic        102.18328           -1            3 # C_R C_R C_R
    9  fourier                113.45116      0.34375      0.37500      0.28125 # Cr4+2 O_3_f H_
    10 fourier                210.85583      0.34375      0.37500      0.28125 # Cr4+2 O_3_f Cr4+2
    11 cosine/periodic         99.93122           -1            3 # C_R O_2_M Cr4+2

Dihedral Coeffs

    1       6.73711           -1            2 # X C_R O_2_M X bond order=1.5
    2       1.25000           -1            2 # X C_R C_R X bond order=1.0
    3       3.36856           -1            2 # X C_R C_R X bond order=1.5

Improper Coeffs

    1      16.66667      1.00000     -1.00000      0.00000            1 # C_R X X X O_2 present=True
    2       2.00000      1.00000     -1.00000      0.00000            1 # C_R X X X O_2 present=False

Atoms

    1 1     2      0.00000      0.00000      0.00000      0.00000
    2 1     2      0.00000     -0.87194      0.00000      3.27698
    3 1     2      0.00000      8.09863      3.92450      6.55396
    4 1     2      0.00000      8.97056      3.92450      3.27698
    5 1     3      0.00000     -1.30791      5.88675      4.91547
    6 1     3      0.00000     -0.43597      1.96225      1.63849
    7 1     3      0.00000      8.53459      1.96225      4.91547
    8 1     3      0.00000      9.40653      5.88675      1.63849
    9 1     3      0.00000      1.89434      5.16189      4.60737
   10 1     3      0.00000     15.17485      5.16189      5.22357
   11 1     3      0.00000     16.04678      2.68711      1.94659
   12 1     3      0.00000      2.76628      2.68711      1.33039
   13 1     3      0.00000     11.73684      1.23739      4.60737
   14 1     3      0.00000      5.33235      1.23739      5.22357
   15 1     3      0.00000      6.20428      6.61161      1.94659
   16 1     3      0.00000     12.60878      6.61161      1.33039
   17 1     3      0.00000      4.21043      5.00491      5.69952
   18 1     3      0.00000     12.85876      5.00491      4.13142
   19 1     3      0.00000     13.73069      2.84409      0.85444
   20 1     3      0.00000      5.08237      2.84409      2.42254
   21 1     3      0.00000     14.05293      1.08041      5.69952
   22 1     3      0.00000      3.01626      1.08041      4.13142
   23 1     3      0.00000      3.88819      6.76859      0.85444
   24 1     3      0.00000     14.92487      6.76859      2.42254
   25 1     1      0.00000      0.73762      1.49131      5.43979
   26 1     1      0.00000     16.33157      1.49131      4.39115
   27 1     1      0.00000     17.20351      6.35769      1.11417
   28 1     1      0.00000      1.60956      6.35769      2.16281
   29 1     1      0.00000     10.58012      5.41581      5.43979
   30 1     1      0.00000      6.48907      5.41581      4.39115
   31 1     1      0.00000      7.36101      2.43319      1.11417
   32 1     1      0.00000     11.45206      2.43319      2.16281
   33 1     1      0.00000      2.81992      5.52570      4.05035
   34 1     1      0.00000     14.24927      5.52570      5.78059
   35 1     1      0.00000     15.12121      2.32330      2.50361
   36 1     1      0.00000      3.69185      2.32330      0.77337
   37 1     1      0.00000     12.66242      1.60120      4.05035
   38 1     1      0.00000      4.40677      1.60120      5.78059
   39 1     1      0.00000      5.27871      6.24780      2.50361
   40 1     1      0.00000     13.53435      6.24780      0.77337
   41 1     1      0.00000      4.10695      5.33732      4.61399
   42 1     1      0.00000     12.96224      5.33732      5.21695
   43 1     1      0.00000     13.83418      2.51168      1.93997
   44 1     1      0.00000      4.97888      2.51168      1.33701
   45 1     1      0.00000     13.94945      1.41282      4.61399
   46 1     1      0.00000      3.11974      1.41282      5.21695
   47 1     1      0.00000      3.99168      6.43618      1.93997
   48 1     1      0.00000     14.82138      6.43618      1.33701
   49 1     1      0.00000      2.88787      6.20071      2.75922
   50 1     1      0.00000     15.92519      6.20071      0.51776
   51 1     1      0.00000     15.05326      1.64829      3.79474
   52 1     1      0.00000      2.01593      1.64829      6.03620
   53 1     1      0.00000     12.73037      2.27621      2.75922
   54 1     1      0.00000      6.08269      2.27621      0.51776
   55 1     1      0.00000      5.21076      5.57279      3.79474
   56 1     1      0.00000     11.85843      5.57279      6.03620
   57 1     5      0.00000     -1.30791      6.96206      4.91547
   58 1     5      0.00000     -0.43597      0.88694      1.63849
   59 1     5      0.00000      8.53459      3.03756      4.91547
   60 1     5      0.00000      9.40653      4.81144      1.63849
   61 1     4      0.00000     -0.30938      1.30293      6.19349
   62 1     4      0.00000     17.37857      1.30293      3.63745
   63 1     4      0.00000     18.25051      6.54607      0.36047
   64 1     4      0.00000      0.56256      6.54607      2.91651
   65 1     4      0.00000      9.53312      5.22743      6.19349
   66 1     4      0.00000      7.53607      5.22743      3.63745
   67 1     4      0.00000      8.40801      2.62157      0.36047
   68 1     4      0.00000     10.40506      2.62157      2.91651
   69 1     4      0.00000      0.57559      1.10671      4.27318
   70 1     4      0.00000     16.49360      1.10671      5.55776
   71 1     4      0.00000     17.36554      6.74229      2.28078
   72 1     4      0.00000      1.44753      6.74229      0.99620
   73 1     4      0.00000     10.41809      5.03121      4.27318
   74 1     4      0.00000      6.65110      5.03121      5.55776
   75 1     4      0.00000      7.52304      2.81779      2.28078
   76 1     4      0.00000     11.29003      2.81779      0.99620
   77 1     2      0.00000     -1.74387      0.00000      6.55396
   78 1     2      0.00000     -2.61581      0.00000      9.83094
   79 1     2      0.00000      6.35475      3.92450     13.10793
   80 1     2      0.00000      7.22669      3.92450      9.83094
   81 1     3      0.00000     -3.05178      5.88675     11.46943
   82 1     3      0.00000     -2.17984      1.96225      8.19245
   83 1     3      0.00000      6.79072      1.96225     11.46943
   84 1     3      0.00000      7.66266      5.88675      8.19245
   85 1     3      0.00000      0.15047      5.16189     11.16133
   86 1     3      0.00000     13.43097      5.16189     11.77754
   87 1     3      0.00000     14.30291      2.68711      8.50055
   88 1     3      0.00000      1.02241      2.68711      7.88435
   89 1     3      0.00000      9.99297      1.23739     11.16133
   90 1     3      0.00000      3.58847      1.23739     11.77754
   91 1     3      0.00000      4.46041      6.61161      8.50055
   92 1     3      0.00000     10.86491      6.61161      7.88435
   93 1     3      0.00000      2.46656      5.00491     12.25349
   94 1     3      0.00000     11.11488      5.00491     10.68538
   95 1     3      0.00000     11.98682      2.84409      7.40840
   96 1     3      0.00000      3.33849      2.84409      8.97650
   97 1     3      0.00000     12.30906      1.08041     12.25349
   98 1     3      0.00000      1.27238      1.08041     10.68538
   99 1     3      0.00000      2.14432      6.76859      7.40840
  100 1     3      0.00000     13.18099      6.76859      8.97650
  101 1     1      0.00000     -1.00626      1.49131     11.99375
  102 1     1      0.00000     14.58769      1.49131     10.94512
  103 1     1      0.00000     15.45963      6.35769      7.66814
  104 1     1      0.00000     -0.13432      6.35769      8.71677
  105 1     1      0.00000      8.83624      5.41581     11.99375
  106 1     1      0.00000      4.74519      5.41581     10.94512
  107 1     1      0.00000      5.61713      2.43319      7.66814
  108 1     1      0.00000      9.70818      2.43319      8.71677
  109 1     1      0.00000      1.07604      5.52570     10.60431
  110 1     1      0.00000     12.50540      5.52570     12.33456
  111 1     1      0.00000     13.37734      2.32330      9.05758
  112 1     1      0.00000      1.94798      2.32330      7.32733
  113 1     1      0.00000     10.91854      1.60120     10.60431
  114 1     1      0.00000      2.66290      1.60120     12.33456
  115 1     1      0.00000      3.53484      6.24780      9.05758
  116 1     1      0.00000     11.79048      6.24780      7.32733
  117 1     1      0.00000      2.36307      5.33732     11.16795
  118 1     1      0.00000     11.21837      5.33732     11.77092
  119 1     1      0.00000     12.09030      2.51168      8.49394
  120 1     1      0.00000      3.23501      2.51168      7.89097
  121 1     1      0.00000     12.20557      1.41282     11.16795
  122 1     1      0.00000      1.37587      1.41282     11.77092
  123 1     1      0.00000      2.24780      6.43618      8.49394
  124 1     1      0.00000     13.07751      6.43618      7.89097
  125 1     1      0.00000      1.14399      6.20071      9.31318
  126 1     1      0.00000     14.18132      6.20071      7.07173
  127 1     1      0.00000     13.30938      1.64829     10.34871
  128 1     1      0.00000      0.27206      1.64829     12.59016
  129 1     1      0.00000     10.98649      2.27621      9.31318
  130 1     1      0.00000      4.33882      2.27621      7.07173
  131 1     1      0.00000      3.46688      5.57279     10.34871
  132 1     1      0.00000     10.11456      5.57279     12.59016
  133 1     5      0.00000     -3.05178      6.96206     11.46943
  134 1     5      0.00000     -2.17984      0.88694      8.19245
  135 1     5      0.00000      6.79072      3.03756     11.46943
  136 1     5      0.00000      7.66266      4.81144      8.19245
  137 1     4      0.00000     -2.05326      1.30293     12.74746
  138 1     4      0.00000     15.63469      1.30293     10.19141
  139 1     4      0.00000     16.50663      6.54607      6.91443
  140 1     4      0.00000     -1.18132      6.54607      9.47048
  141 1     4      0.00000      7.78924      5.22743     12.74746
  142 1     4      0.00000      5.79219      5.22743     10.19141
  143 1     4      0.00000      6.66413      2.62157      6.91443
  144 1     4      0.00000      8.66118      2.62157      9.47048
  145 1     4      0.00000     -1.16829      1.10671     10.82715
  146 1     4      0.00000     14.74972      1.10671     12.11172
  147 1     4      0.00000     15.62166      6.74229      8.83474
  148 1     4      0.00000     -0.29635      6.74229      7.55016
  149 1     4      0.00000      8.67421      5.03121     10.82715
  150 1     4      0.00000      4.90722      5.03121     12.11172
  151 1     4      0.00000      5.77916      2.81779      8.83474
  152 1     4      0.00000      9.54615      2.81779      7.55016
  153 1     2      0.00000      0.00000      7.84900      0.00000
  154 1     2      0.00000     -0.87194      7.84900      3.27698
  155 1     2      0.00000      8.09863     11.77350      6.55396
  156 1     2      0.00000      8.97056     11.77350      3.27698
  157 1     3      0.00000     -1.30791     13.73575      4.91547
  158 1     3      0.00000     -0.43597      9.81125      1.63849
  159 1     3      0.00000      8.53459      9.81125      4.91547
  160 1     3      0.00000      9.40653     13.73575      1.63849
  161 1     3      0.00000      1.89434     13.01089      4.60737
  162 1     3      0.00000     15.17485     13.01089      5.22357
  163 1     3      0.00000     16.04678     10.53611      1.94659
  164 1     3      0.00000      2.76628     10.53611      1.33039
  165 1     3      0.00000     11.73684      9.08639      4.60737
  166 1     3      0.00000      5.33235      9.08639      5.22357
  167 1     3      0.00000      6.20428     14.46061      1.94659
  168 1     3      0.00000     12.60878     14.46061      1.33039
  169 1     3      0.00000      4.21043     12.85391      5.69952
  170 1     3      0.00000     12.85876     12.85391      4.13142
  171 1     3      0.00000     13.73069     10.69309      0.85444
  172 1     3      0.00000      5.08237     10.69309      2.42254
  173 1     3      0.00000     14.05293      8.92941      5.69952
  174 1     3      0.00000      3.01626      8.92941      4.13142
  175 1     3      0.00000      3.88819     14.61759      0.85444
  176 1     3      0.00000     14.92487     14.61759      2.42254
  177 1     1      0.00000      0.73762      9.34031      5.43979
  178 1     1      0.00000     16.33157      9.34031      4.39115
  179 1     1      0.00000     17.20351     14.20669      1.11417
  180 1     1      0.00000      1.60956     14.20669      2.16281
  181 1     1      0.00000     10.58012     13.26481      5.43979
  182 1     1      0.00000      6.48907     13.26481      4.39115
  183 1     1      0.00000      7.36101     10.28219      1.11417
  184 1     1      0.00000     11.45206     10.28219      2.16281
  185 1     1      0.00000      2.81992     13.37470      4.05035
  186 1     1      0.00000     14.24927     13.37470      5.78059
  187 1     1      0.00000     15.12121     10.17230      2.50361
  188 1     1      0.00000      3.69185     10.17230      0.77337
  189 1     1      0.00000     12.66242      9.45020      4.05035
  190 1     1      0.00000      4.40677      9.45020      5.78059
  191 1     1      0.00000      5.27871     14.09680      2.50361
  192 1     1      0.00000     13.53435     14.09680      0.77337
  193 1     1      0.00000      4.10695     13.18632      4.61399
  194 1     1      0.00000     12.96224     13.18632      5.21695
  195 1     1      0.00000     13.83418     10.36068      1.93997
  196 1     1      0.00000      4.97888     10.36068      1.33701
  197 1     1      0.00000     13.94945      9.26182      4.61399
  198 1     1      0.00000      3.11974      9.26182      5.21695
  199 1     1      0.00000      3.99168     14.28518      1.93997
  200 1     1      0.00000     14.82138     14.28518      1.33701
  201 1     1      0.00000      2.88787     14.04971      2.75922
  202 1     1      0.00000     15.92519     14.04971      0.51776
  203 1     1      0.00000     15.05326      9.49729      3.79474
  204 1     1      0.00000      2.01593      9.49729      6.03620
  205 1     1      0.00000     12.73037     10.12521      2.75922
  206 1     1      0.00000      6.08269     10.12521      0.51776
  207 1     1      0.00000      5.21076     13.42179      3.79474
  208 1     1      0.00000     11.85843     13.42179      6.03620
  209 1     5      0.00000     -1.30791     14.81106      4.91547
  210 1     5      0.00000     -0.43597      8.73594      1.63849
  211 1     5      0.00000      8.53459     10.88656      4.91547
  212 1     5      0.00000      9.40653     12.66044      1.63849
  213 1     4      0.00000     -0.30938      9.15193      6.19349
  214 1     4      0.00000     17.37857      9.15193      3.63745
  215 1     4      0.00000     18.25051     14.39507      0.36047
  216 1     4      0.00000      0.56256     14.39507      2.91651
  217 1     4      0.00000      9.53312     13.07643      6.19349
  218 1     4      0.00000      7.53607     13.07643      3.63745
  219 1     4      0.00000      8.40801     10.47057      0.36047
  220 1     4      0.00000     10.40506     10.47057      2.91651
  221 1     4      0.00000      0.57559      8.95571      4.27318
  222 1     4      0.00000     16.49360      8.95571      5.55776
  223 1     4      0.00000     17.36554     14.59129      2.28078
  224 1     4      0.00000      1.44753     14.59129      0.99620
  225 1     4      0.00000     10.41809     12.88021      4.27318
  226 1     4      0.00000      6.65110     12.88021      5.55776
  227 1     4      0.00000      7.52304     10.66679      2.28078
  228 1     4      0.00000     11.29003     10.66679      0.99620
  229 1     2      0.00000     -1.74387      7.84900      6.55396
  230 1     2      0.00000     -2.61581      7.84900      9.83094
  231 1     2      0.00000      6.35475     11.77350     13.10793
  232 1     2      0.00000      7.22669     11.77350      9.83094
  233 1     3      0.00000     -3.05178     13.73575     11.46943
  234 1     3      0.00000     -2.17984      9.81125      8.19245
  235 1     3      0.00000      6.79072      9.81125     11.46943
  236 1     3      0.00000      7.66266     13.73575      8.19245
  237 1     3      0.00000      0.15047     13.01089     11.16133
  238 1     3      0.00000     13.43097     13.01089     11.77754
  239 1     3      0.00000     14.30291     10.53611      8.50055
  240 1     3      0.00000      1.02241     10.53611      7.88435
  241 1     3      0.00000      9.99297      9.08639     11.16133
  242 1     3      0.00000      3.58847      9.08639     11.77754
  243 1     3      0.00000      4.46041     14.46061      8.50055
  244 1     3      0.00000     10.86491     14.46061      7.88435
  245 1     3      0.00000      2.46656     12.85391     12.25349
  246 1     3      0.00000     11.11488     12.85391     10.68538
  247 1     3      0.00000     11.98682     10.69309      7.40840
  248 1     3      0.00000      3.33849     10.69309      8.97650
  249 1     3      0.00000     12.30906      8.92941     12.25349
  250 1     3      0.00000      1.27238      8.92941     10.68538
  251 1     3      0.00000      2.14432     14.61759      7.40840
  252 1     3      0.00000     13.18099     14.61759      8.97650
  253 1     1      0.00000     -1.00626      9.34031     11.99375
  254 1     1      0.00000     14.58769      9.34031     10.94512
  255 1     1      0.00000     15.45963     14.20669      7.66814
  256 1     1      0.00000     -0.13432     14.20669      8.71677
  257 1     1      0.00000      8.83624     13.26481     11.99375
  258 1     1      0.00000      4.74519     13.26481     10.94512
  259 1     1      0.00000      5.61713     10.28219      7.66814
  260 1     1      0.00000      9.70818     10.28219      8.71677
  261 1     1      0.00000      1.07604     13.37470     10.60431
  262 1     1      0.00000     12.50540     13.37470     12.33456
  263 1     1      0.00000     13.37734     10.17230      9.05758
  264 1     1      0.00000      1.94798     10.17230      7.32733
  265 1     1      0.00000     10.91854      9.45020     10.60431
  266 1     1      0.00000      2.66290      9.45020     12.33456
  267 1     1      0.00000      3.53484     14.09680      9.05758
  268 1     1      0.00000     11.79048     14.09680      7.32733
  269 1     1      0.00000      2.36307     13.18632     11.16795
  270 1     1      0.00000     11.21837     13.18632     11.77092
  271 1     1      0.00000     12.09030     10.36068      8.49394
  272 1     1      0.00000      3.23501     10.36068      7.89097
  273 1     1      0.00000     12.20557      9.26182     11.16795
  274 1     1      0.00000      1.37587      9.26182     11.77092
  275 1     1      0.00000      2.24780     14.28518      8.49394
  276 1     1      0.00000     13.07751     14.28518      7.89097
  277 1     1      0.00000      1.14399     14.04971      9.31318
  278 1     1      0.00000     14.18132     14.04971      7.07173
  279 1     1      0.00000     13.30938      9.49729     10.34871
  280 1     1      0.00000      0.27206      9.49729     12.59016
  281 1     1      0.00000     10.98649     10.12521      9.31318
  282 1     1      0.00000      4.33882     10.12521      7.07173
  283 1     1      0.00000      3.46688     13.42179     10.34871
  284 1     1      0.00000     10.11456     13.42179     12.59016
  285 1     5      0.00000     -3.05178     14.81106     11.46943
  286 1     5      0.00000     -2.17984      8.73594      8.19245
  287 1     5      0.00000      6.79072     10.88656     11.46943
  288 1     5      0.00000      7.66266     12.66044      8.19245
  289 1     4      0.00000     -2.05326      9.15193     12.74746
  290 1     4      0.00000     15.63469      9.15193     10.19141
  291 1     4      0.00000     16.50663     14.39507      6.91443
  292 1     4      0.00000     -1.18132     14.39507      9.47048
  293 1     4      0.00000      7.78924     13.07643     12.74746
  294 1     4      0.00000      5.79219     13.07643     10.19141
  295 1     4      0.00000      6.66413     10.47057      6.91443
  296 1     4      0.00000      8.66118     10.47057      9.47048
  297 1     4      0.00000     -1.16829      8.95571     10.82715
  298 1     4      0.00000     14.74972      8.95571     12.11172
  299 1     4      0.00000     15.62166     14.59129      8.83474
  300 1     4      0.00000     -0.29635     14.59129      7.55016
  301 1     4      0.00000      8.67421     12.88021     10.82715
  302 1     4      0.00000      4.90722     12.88021     12.11172
  303 1     4      0.00000      5.77916     10.66679      8.83474
  304 1     4      0.00000      9.54615     10.66679      7.55016
  305 1     2      0.00000     19.68500      0.00000      0.00000
  306 1     2      0.00000     18.81306      0.00000      3.27698
  307 1     2      0.00000     27.78363      3.92450      6.55396
  308 1     2      0.00000     28.65556      3.92450      3.27698
  309 1     3      0.00000     18.37709      5.88675      4.91547
  310 1     3      0.00000     19.24903      1.96225      1.63849
  311 1     3      0.00000     28.21959      1.96225      4.91547
  312 1     3      0.00000     29.09153      5.88675      1.63849
  313 1     3      0.00000     21.57934      5.16189      4.60737
  314 1     3      0.00000     34.85985      5.16189      5.22357
  315 1     3      0.00000     35.73178      2.68711      1.94659
  316 1     3      0.00000     22.45128      2.68711      1.33039
  317 1     3      0.00000     31.42184      1.23739      4.60737
  318 1     3      0.00000     25.01735      1.23739      5.22357
  319 1     3      0.00000     25.88928      6.61161      1.94659
  320 1     3      0.00000     32.29378      6.61161      1.33039
  321 1     3      0.00000     23.89543      5.00491      5.69952
  322 1     3      0.00000     32.54376      5.00491      4.13142
  323 1     3      0.00000     33.41569      2.84409      0.85444
  324 1     3      0.00000     24.76737      2.84409      2.42254
  325 1     3      0.00000     33.73793      1.08041      5.69952
  326 1     3      0.00000     22.70126      1.08041      4.13142
  327 1     3      0.00000     23.57319      6.76859      0.85444
  328 1     3      0.00000     34.60987      6.76859      2.42254
  329 1     1      0.00000     20.42262      1.49131      5.43979
  330 1     1      0.00000     36.01657      1.49131      4.39115
  331 1     1      0.00000     36.88851      6.35769      1.11417
  332 1     1      0.00000     21.29456      6.35769      2.16281
  333 1     1      0.00000     30.26512      5.41581      5.43979
  334 1     1      0.00000     26.17407      5.41581      4.39115
  335 1     1      0.00000     27.04601      2.43319      1.11417
  336 1     1      0.00000     31.13706      2.43319      2.16281
  337 1     1      0.00000     22.50492      5.52570      4.05035
  338 1     1      0.00000     33.93427      5.52570      5.78059
  339 1     1      0.00000     34.80621      2.32330      2.50361
  340 1     1      0.00000     23.37685      2.32330      0.77337
  341 1     1      0.00000     32.34742      1.60120      4.05035
  342 1     1      0.00000     24.09177      1.60120      5.78059
  343 1     1      0.00000     24.96371      6.24780      2.50361
  344 1     1      0.00000     33.21935      6.24780      0.77337
  345 1     1      0.00000     23.79195      5.33732      4.61399
  346 1     1      0.00000     32.64724      5.33732      5.21695
  347 1     1      0.00000     33.51918      2.51168      1.93997
  348 1     1      0.00000     24.66388      2.51168      1.33701
  349 1     1      0.00000     33.63445      1.41282      4.61399
  350 1     1      0.00000     22.80474      1.41282      5.21695
  351 1     1      0.00000     23.67668      6.43618      1.93997
  352 1     1      0.00000     34.50638      6.43618      1.33701
  353 1     1      0.00000     22.57287      6.20071      2.75922
  354 1     1      0.00000     35.61019      6.20071      0.51776
  355 1     1      0.00000     34.73826      1.64829      3.79474
  356 1     1      0.00000     21.70093      1.64829      6.03620
  357 1     1      0.00000     32.41537      2.27621      2.75922
  358 1     1      0.00000     25.76769      2.27621      0.51776
  359 1     1      0.00000     24.89576      5.57279      3.79474
  360 1     1      0.00000     31.54343      5.57279      6.03620
  361 1     5      0.00000     18.37709      6.96206      4.91547
  362 1     5      0.00000     19.24903      0.88694      1.63849
  363 1     5      0.00000     28.21959      3.03756      4.91547
  364 1     5      0.00000     29.09153      4.81144      1.63849
  365 1     4      0.00000     19.37562      1.30293      6.19349
  366 1     4      0.00000     37.06357      1.30293      3.63745
  367 1     4      0.00000     37.93551      6.54607      0.36047
  368 1     4      0.00000     20.24756      6.54607      2.91651
  369 1     4      0.00000     29.21812      5.22743      6.19349
  370 1     4      0.00000     27.22107      5.22743      3.63745
  371 1     4      0.00000     28.09301      2.62157      0.36047
  372 1     4      0.00000     30.09006      2.62157      2.91651
  373 1     4      0.00000     20.26059      1.10671      4.27318
  374 1     4      0.00000     36.17860      1.10671      5.55776
  375 1     4      0.00000     37.05054      6.74229      2.28078
  376 1     4      0.00000     21.13253      6.74229      0.99620
  377 1     4      0.00000     30.10309      5.03121      4.27318
  378 1     4      0.00000     26.33610      5.03121      5.55776
  379 1     4      0.00000     27.20804      2.81779      2.28078
  380 1     4      0.00000     30.97503      2.81779      0.99620
  381 1     2      0.00000     17.94113      0.00000      6.55396
  382 1     2      0.00000     17.06919      0.00000      9.83094
  383 1     2      0.00000     26.03975      3.92450     13.10793
  384 1     2      0.00000     26.91169      3.92450      9.83094
  385 1     3      0.00000     16.63322      5.88675     11.46943
  386 1     3      0.00000     17.50516      1.96225      8.19245
  387 1     3      0.00000     26.47572      1.96225     11.46943
  388 1     3      0.00000     27.34766      5.88675      8.19245
  389 1     3      0.00000     19.83547      5.16189     11.16133
  390 1     3      0.00000     33.11597      5.16189     11.77754
  391 1     3      0.00000     33.98791      2.68711      8.50055
  392 1     3      0.00000     20.70741      2.68711      7.88435
  393 1     3      0.00000     29.67797      1.23739     11.16133
  394 1     3      0.00000     23.27347      1.23739     11.77754
  395 1     3      0.00000     24.14541      6.61161      8.50055
  396 1     3      0.00000     30.54991      6.61161      7.88435
  397 1     3      0.00000     22.15156      5.00491     12.25349
  398 1     3      0.00000     30.79988      5.00491     10.68538
  399 1     3      0.00000     31.67182      2.84409      7.40840
  400 1     3      0.00000     23.02349      2.84409      8.97650
  401 1     3      0.00000     31.99406      1.08041     12.25349
  402 1     3      0.00000     20.95738      1.08041     10.68538
  403 1     3      0.00000     21.82932      6.76859      7.40840
  404 1     3      0.00000     32.86599      6.76859      8.97650
  405 1     1      0.00000     18.67874      1.49131     11.99375
  406 1     1      0.00000     34.27269      1.49131     10.94512
  407 1     1      0.00000     35.14463      6.35769      7.66814
  408 1     1      0.00000     19.55068      6.35769      8.71677
  409 1     1      0.00000     28.52124      5.41581     11.99375
  410 1     1      0.00000     24.43019      5.41581     10.94512
  411 1     1      0.00000     25.30213      2.43319      7.66814
  412 1     1      0.00000     29.39318      2.43319      8.71677
  413 1     1      0.00000     20.76104      5.52570     10.60431
  414 1     1      0.00000     32.19040      5.52570     12.33456
  415 1     1      0.00000     33.06234      2.32330      9.05758
  416 1     1      0.00000     21.63298      2.32330      7.32733