Created by Ryther's code on 2024-12-06 20:31:10.163568

    72 atoms
    90 bonds
    200 angles
    160 dihedrals
    32 impropers

    4 atom types
    6 bond types
    9 angle types
    3 dihedral types
    2 improper types

0.00000000 6.8179 xlo xhi
0.00000000 16.143 ylo yhi
0.00000000 13.939 zlo zhi
0.0 0.0 0.0 xy xz yz 

Masses 

    1    15.9994
    2    1.00794
    3    12.0107
    4    50.9415

Pair Coeffs

    1       0.06000      3.11815 # O_2_M O_2_M
    2       0.04400      2.57113 # H_ H_
    3       0.10500      3.43085 # C_R C_R
    4       0.01600      2.80099 # V_3+5 V_3+5

Bond Coeffs

    1     278.14217      1.94476 # O_2_M V_3+5 bond order=1.0
    2     108.09249      2.80400 # V_3+5 V_3+5 bond order=1.0
    3     357.44038      1.08142 # C_R H_ bond order=1.0
    4     462.65505      1.37926 # C_R C_R bond order=1.5
    5     391.66951      1.45800 # C_R C_R bond order=1.0
    6     714.49531      1.26901 # C_R O_2_M bond order=1.5

Angle Coeffs

    1  fourier                 88.02802      0.34375      0.37500      0.28125 # O_2_M V_3+5 V_3+5
    2  fourier                146.22320      0.34375      0.37500      0.28125 # O_2_M V_3+5 O_2_M
    3  cosine/periodic         57.28902           -1            3 # C_R C_R H_
    4  cosine/periodic        111.29751           -1            3 # C_R C_R C_R
    5  cosine/periodic        102.18328           -1            3 # C_R C_R C_R
    6  cosine/periodic        137.70227           -1            3 # C_R C_R O_2_M
    7  cosine/periodic        206.74247           -1            3 # O_2_M C_R O_2_M
    8  cosine/periodic         77.94018           -1            3 # V_3+5 O_2_M V_3+5
    9  cosine/periodic         93.11024           -1            3 # C_R O_2_M V_3+5

Dihedral Coeffs

    1       3.36856           -1            2 # X C_R C_R X bond order=1.5
    2       1.25000           -1            2 # X C_R C_R X bond order=1.0
    3       6.73711           -1            2 # X C_R O_2_M X bond order=1.5

Improper Coeffs

    1       2.00000      1.00000     -1.00000      0.00000            1 # C_R X X X O_2 present=False
    2      16.66667      1.00000     -1.00000      0.00000            1 # C_R X X X O_2 present=True

Atoms

    1 1     4      0.00000      1.36494      4.03575     10.30315
    2 1     4      0.00000      2.04401     12.10725      3.33365
    3 1     4      0.00000      5.45296     12.10725      3.63585
    4 1     4      0.00000      4.77389      4.03575     10.60535
    5 1     2      0.00000      1.37381      0.89432      7.56191
    6 1     2      0.00000      2.03514     15.24868      0.59241
    7 1     2      0.00000      5.44409      8.96582      6.37709
    8 1     2      0.00000      4.78276      7.17718     13.34659
    9 1     2      0.00000      5.44409     15.24868      6.37709
   10 1     2      0.00000      4.78276      0.89432     13.34659
   11 1     2      0.00000      1.37381      7.17718      7.56191
   12 1     2      0.00000      2.03514      8.96582      0.59241
   13 1     2      0.00000      5.33842      0.88464      7.82117
   14 1     2      0.00000      4.88843     15.25836      0.85167
   15 1     2      0.00000      1.47948      8.95614      6.11783
   16 1     2      0.00000      1.92947      7.18686     13.08733
   17 1     2      0.00000      1.47948     15.25836      6.11783
   18 1     2      0.00000      1.92947      0.88464     13.08733
   19 1     2      0.00000      5.33842      7.18686      7.82117
   20 1     2      0.00000      4.88843      8.95614      0.85167
   21 1     3      0.00000      2.19877      0.53110      7.33331
   22 1     3      0.00000      1.21018     15.61190      0.36381
   23 1     3      0.00000      4.61913      8.60260      6.60569
   24 1     3      0.00000      5.60772      7.54040     13.57519
   25 1     3      0.00000      4.61913     15.61190      6.60569
   26 1     3      0.00000      5.60772      0.53110     13.57519
   27 1     3      0.00000      2.19877      7.54040      7.33331
   28 1     3      0.00000      1.21018      8.60260      0.36381
   29 1     3      0.00000      4.55095      0.52142      7.48385
   30 1     3      0.00000      5.67590     15.62158      0.51435
   31 1     3      0.00000      2.26695      8.59292      6.45515
   32 1     3      0.00000      1.14200      7.55008     13.42465
   33 1     3      0.00000      2.26695     15.62158      6.45515
   34 1     3      0.00000      1.14200      0.52142     13.42465
   35 1     3      0.00000      4.55095      7.55008      7.48385
   36 1     3      0.00000      5.67590      8.59292      0.51435
   37 1     3      0.00000      3.34827      1.04768      7.87554
   38 1     3      0.00000      0.06068     15.09532      0.90604
   39 1     3      0.00000      3.46963      9.11918      6.06346
   40 1     3      0.00000      6.75722      7.02382     13.03297
   41 1     3      0.00000      3.46963     15.09532      6.06346
   42 1     3      0.00000      6.75722      1.04768     13.03297
   43 1     3      0.00000      3.34827      7.02382      7.87554
   44 1     3      0.00000      0.06068      9.11918      0.90604
   45 1     3      0.00000      3.25964      2.20513      8.82757
   46 1     3      0.00000      0.14931     13.93787      1.85807
   47 1     3      0.00000      3.55826     10.27663      5.11143
   48 1     3      0.00000      6.66859      5.86637     12.08093
   49 1     3      0.00000      3.55826     13.93787      5.11143
   50 1     3      0.00000      6.66859      2.20513     12.08093
   51 1     3      0.00000      3.25964      5.86637      8.82757
   52 1     3      0.00000      0.14931     10.27663      1.85807
   53 1     1      0.00000      6.64813      4.03575      9.64021
   54 1     1      0.00000      3.57872     12.10725      2.67071
   55 1     1      0.00000      0.16977     12.10725      4.29879
   56 1     1      0.00000      3.23918      4.03575     11.26829
   57 1     1      0.00000      2.12582      2.63454      9.13701
   58 1     1      0.00000      1.28313     13.50846      2.16751
   59 1     1      0.00000      4.69208     10.70604      4.80199
   60 1     1      0.00000      5.53477      5.43696     11.77149
   61 1     1      0.00000      4.69208     13.50846      4.80199
   62 1     1      0.00000      5.53477      2.63454     11.77149
   63 1     1      0.00000      2.12582      5.43696      9.13701
   64 1     1      0.00000      1.28313     10.70604      2.16751
   65 1     1      0.00000      0.96473      2.62485     11.61816
   66 1     1      0.00000      2.44422     13.51815      4.64866
   67 1     1      0.00000      5.85317     10.69635      2.32084
   68 1     1      0.00000      4.37368      5.44665      9.29034
   69 1     1      0.00000      5.85317     13.51815      2.32084
   70 1     1      0.00000      4.37368      2.62485      9.29034
   71 1     1      0.00000      0.96473      5.44665     11.61816
   72 1     1      0.00000      2.44422     10.69635      4.64866

Bonds

    1 1     1      57    
    2 1     1      56    
    3 1     1      71    
    4 1     1      63    
    5 1     1      65    
    6 1     1      53    
    7 1     2      64    
    8 1     2      54    
    9 1     2      72    
   10 1     2      58    
   11 1     2      66    
   12 1     2      55    
   13 1     3      67    
   14 1     3      55    
   15 1     3      54    
   16 1     3      69    
   17 1     3      59    
   18 1     3      61    
   19 1     4      53    
   20 1     4      56    
   21 1     4      60    
   22 1     4      68    
   23 1     4      70    
   24 1     4      62    
   25 2     1      4     
   26 2     2      3     
   27 3     5      21    
   28 3     6      22    
   29 3     7      23    
   30 3     8      24    
   31 3     9      25    
   32 3     10     26    
   33 3     11     27    
   34 3     12     28    
   35 3     13     29    
   36 3     14     30    
   37 3     15     31    
   38 3     16     32    
   39 3     17     33    
   40 3     18     34    
   41 3     19     35    
   42 3     20     36    
   43 4     21     37    
   44 4     21     33    
   45 4     22     38    
   46 4     22     34    
   47 4     23     35    
   48 4     23     39    
   49 4     24     36    
   50 4     24     40    
   51 4     25     41    
   52 4     25     29    
   53 4     26     42    
   54 4     26     30    
   55 4     27     31    
   56 4     27     43    
   57 4     28     44    
   58 4     28     32    
   59 4     29     37    
   60 4     30     38    
   61 4     31     39    
   62 4     32     40    
   63 4     33     41    
   64 4     34     42    
   65 4     35     43    
   66 4     36     44    
   67 5     37     45    
   68 5     38     46    
   69 5     39     47    
   70 5     40     48    
   71 5     41     49    
   72 5     42     50    
   73 5     43     51    
   74 5     44     52    
   75 6     45     57    
   76 6     45     70    
   77 6     46     58    
   78 6     46     69    
   79 6     47     59    
   80 6     47     72    
   81 6     48     71    
   82 6     48     60    
   83 6     49     61    
   84 6     49     66    
   85 6     50     62    
   86 6     50     65    
   87 6     51     68    
   88 6     51     63    
   89 6     52     64    
   90 6     52     67    

Angles

    1 1     57     1      4     
    2 1     56     1      4     
    3 1     71     1      4     
    4 1     63     1      4     
    5 1     65     1      4     
    6 1     53     1      4     
    7 1     64     2      3     
    8 1     54     2      3     
    9 1     72     2      3     
   10 1     58     2      3     
   11 1     66     2      3     
   12 1     55     2      3     
   13 1     67     3      2     
   14 1     55     3      2     
   15 1     54     3      2     
   16 1     69     3      2     
   17 1     59     3      2     
   18 1     61     3      2     
   19 1     53     4      1     
   20 1     56     4      1     
   21 1     60     4      1     
   22 1     68     4      1     
   23 1     70     4      1     
   24 1     62     4      1     
   25 2     57     1      56    
   26 2     57     1      71    
   27 2     57     1      63    
   28 2     57     1      65    
   29 2     57     1      53    
   30 2     56     1      71    
   31 2     56     1      63    
   32 2     56     1      65    
   33 2     56     1      53    
   34 2     71     1      63    
   35 2     71     1      65    
   36 2     71     1      53    
   37 2     63     1      65    
   38 2     63     1      53    
   39 2     65     1      53    
   40 2     64     2      54    
   41 2     64     2      72    
   42 2     64     2      58    
   43 2     64     2      66    
   44 2     64     2      55    
   45 2     54     2      72    
   46 2     54     2      58    
   47 2     54     2      66    
   48 2     54     2      55    
   49 2     72     2      58    
   50 2     72     2      66    
   51 2     72     2      55    
   52 2     58     2      66    
   53 2     58     2      55    
   54 2     66     2      55    
   55 2     67     3      55    
   56 2     67     3      54    
   57 2     67     3      69    
   58 2     67     3      59    
   59 2     67     3      61    
   60 2     55     3      54    
   61 2     55     3      69    
   62 2     55     3      59    
   63 2     55     3      61    
   64 2     54     3      69    
   65 2     54     3      59    
   66 2     54     3      61    
   67 2     69     3      59    
   68 2     69     3      61    
   69 2     59     3      61    
   70 2     53     4      56    
   71 2     53     4      60    
   72 2     53     4      68    
   73 2     53     4      70    
   74 2     53     4      62    
   75 2     56     4      60    
   76 2     56     4      68    
   77 2     56     4      70    
   78 2     56     4      62    
   79 2     60     4      68    
   80 2     60     4      70    
   81 2     60     4      62    
   82 2     68     4      70    
   83 2     68     4      62    
   84 2     70     4      62    
   85 3     37     21     5     
   86 3     33     21     5     
   87 3     38     22     6     
   88 3     34     22     6     
   89 3     35     23     7     
   90 3     39     23     7     
   91 3     36     24     8     
   92 3     40     24     8     
   93 3     41     25     9     
   94 3     29     25     9     
   95 3     42     26     10    
   96 3     30     26     10    
   97 3     31     27     11    
   98 3     43     27     11    
   99 3     44     28     12    
  100 3     32     28     12    
  101 3     25     29     13    
  102 3     37     29     13    
  103 3     26     30     14    
  104 3     38     30     14    
  105 3     27     31     15    
  106 3     39     31     15    
  107 3     28     32     16    
  108 3     40     32     16    
  109 3     21     33     17    
  110 3     41     33     17    
  111 3     22     34     18    
  112 3     42     34     18    
  113 3     23     35     19    
  114 3     43     35     19    
  115 3     24     36     20    
  116 3     44     36     20    
  117 4     37     21     33    
  118 4     38     22     34    
  119 4     35     23     39    
  120 4     36     24     40    
  121 4     41     25     29    
  122 4     42     26     30    
  123 4     31     27     43    
  124 4     44     28     32    
  125 4     25     29     37    
  126 4     26     30     38    
  127 4     27     31     39    
  128 4     28     32     40    
  129 4     21     33     41    
  130 4     22     34     42    
  131 4     23     35     43    
  132 4     24     36     44    
  133 4     21     37     29    
  134 4     22     38     30    
  135 4     23     39     31    
  136 4     24     40     32    
  137 4     25     41     33    
  138 4     26     42     34    
  139 4     27     43     35    
  140 4     28     44     36    
  141 5     21     37     45    
  142 5     29     37     45    
  143 5     22     38     46    
  144 5     30     38     46    
  145 5     23     39     47    
  146 5     31     39     47    
  147 5     24     40     48    
  148 5     32     40     48    
  149 5     25     41     49    
  150 5     33     41     49    
  151 5     26     42     50    
  152 5     34     42     50    
  153 5     27     43     51    
  154 5     35     43     51    
  155 5     28     44     52    
  156 5     36     44     52    
  157 6     37     45     57    
  158 6     37     45     70    
  159 6     38     46     58    
  160 6     38     46     69    
  161 6     39     47     59    
  162 6     39     47     72    
  163 6     40     48     71    
  164 6     40     48     60    
  165 6     41     49     61    
  166 6     41     49     66    
  167 6     42     50     62    
  168 6     42     50     65    
  169 6     43     51     68    
  170 6     43     51     63    
  171 6     44     52     64    
  172 6     44     52     67    
  173 7     57     45     70    
  174 7     58     46     69    
  175 7     59     47     72    
  176 7     71     48     60    
  177 7     61     49     66    
  178 7     62     50     65    
  179 7     68     51     63    
  180 7     64     52     67    
  181 8     1      53     4     
  182 8     2      54     3     
  183 8     2      55     3     
  184 8     1      56     4     
  185 9     45     57     1     
  186 9     46     58     2     
  187 9     47     59     3     
  188 9     48     60     4     
  189 9     49     61     3     
  190 9     50     62     4     
  191 9     51     63     1     
  192 9     52     64     2     
  193 9     50     65     1     
  194 9     49     66     2     
  195 9     52     67     3     
  196 9     51     68     4     
  197 9     46     69     3     
  198 9     45     70     4     
  199 9     48     71     1     
  200 9     47     72     2     

Dihedrals

    1 1     5      21     37     29    
    2 1     5      21     37     45    
    3 1     33     21     37     29    
    4 1     33     21     37     45    
    5 1     5      21     33     17    
    6 1     5      21     33     41    
    7 1     37     21     33     17    
    8 1     37     21     33     41    
    9 1     6      22     38     30    
   10 1     6      22     38     46    
   11 1     34     22     38     30    
   12 1     34     22     38     46    
   13 1     6      22     34     18    
   14 1     6      22     34     42    
   15 1     38     22     34     18    
   16 1     38     22     34     42    
   17 1     7      23     35     19    
   18 1     7      23     35     43    
   19 1     39     23     35     19    
   20 1     39     23     35     43    
   21 1     7      23     39     31    
   22 1     7      23     39     47    
   23 1     35     23     39     31    
   24 1     35     23     39     47    
   25 1     8      24     36     20    
   26 1     8      24     36     44    
   27 1     40     24     36     20    
   28 1     40     24     36     44    
   29 1     8      24     40     32    
   30 1     8      24     40     48    
   31 1     36     24     40     32    
   32 1     36     24     40     48    
   33 1     9      25     41     33    
   34 1     9      25     41     49    
   35 1     29     25     41     33    
   36 1     29     25     41     49    
   37 1     9      25     29     13    
   38 1     9      25     29     37    
   39 1     41     25     29     13    
   40 1     41     25     29     37    
   41 1     10     26     42     34    
   42 1     10     26     42     50    
   43 1     30     26     42     34    
   44 1     30     26     42     50    
   45 1     10     26     30     14    
   46 1     10     26     30     38    
   47 1     42     26     30     14    
   48 1     42     26     30     38    
   49 1     11     27     31     15    
   50 1     11     27     31     39    
   51 1     43     27     31     15    
   52 1     43     27     31     39    
   53 1     11     27     43     35    
   54 1     11     27     43     51    
   55 1     31     27     43     35    
   56 1     31     27     43     51    
   57 1     12     28     44     36    
   58 1     12     28     44     52    
   59 1     32     28     44     36    
   60 1     32     28     44     52    
   61 1     12     28     32     16    
   62 1     12     28     32     40    
   63 1     44     28     32     16    
   64 1     44     28     32     40    
   65 1     13     29     37     21    
   66 1     13     29     37     45    
   67 1     25     29     37     21    
   68 1     25     29     37     45    
   69 1     14     30     38     22    
   70 1     14     30     38     46    
   71 1     26     30     38     22    
   72 1     26     30     38     46    
   73 1     15     31     39     23    
   74 1     15     31     39     47    
   75 1     27     31     39     23    
   76 1     27     31     39     47    
   77 1     16     32     40     24    
   78 1     16     32     40     48    
   79 1     28     32     40     24    
   80 1     28     32     40     48    
   81 1     17     33     41     25    
   82 1     17     33     41     49    
   83 1     21     33     41     25    
   84 1     21     33     41     49    
   85 1     18     34     42     26    
   86 1     18     34     42     50    
   87 1     22     34     42     26    
   88 1     22     34     42     50    
   89 1     19     35     43     27    
   90 1     19     35     43     51    
   91 1     23     35     43     27    
   92 1     23     35     43     51    
   93 1     20     36     44     28    
   94 1     20     36     44     52    
   95 1     24     36     44     28    
   96 1     24     36     44     52    
   97 2     21     37     45     57    
   98 2     21     37     45     70    
   99 2     29     37     45     57    
  100 2     29     37     45     70    
  101 2     22     38     46     58    
  102 2     22     38     46     69    
  103 2     30     38     46     58    
  104 2     30     38     46     69    
  105 2     23     39     47     59    
  106 2     23     39     47     72    
  107 2     31     39     47     59    
  108 2     31     39     47     72    
  109 2     24     40     48     71    
  110 2     24     40     48     60    
  111 2     32     40     48     71    
  112 2     32     40     48     60    
  113 2     25     41     49     61    
  114 2     25     41     49     66    
  115 2     33     41     49     61    
  116 2     33     41     49     66    
  117 2     26     42     50     62    
  118 2     26     42     50     65    
  119 2     34     42     50     62    
  120 2     34     42     50     65    
  121 2     27     43     51     68    
  122 2     27     43     51     63    
  123 2     35     43     51     68    
  124 2     35     43     51     63    
  125 2     28     44     52     64    
  126 2     28     44     52     67    
  127 2     36     44     52     64    
  128 2     36     44     52     67    
  129 3     37     45     57     1     
  130 3     70     45     57     1     
  131 3     37     45     70     4     
  132 3     57     45     70     4     
  133 3     38     46     58     2     
  134 3     69     46     58     2     
  135 3     38     46     69     3     
  136 3     58     46     69     3     
  137 3     39     47     59     3     
  138 3     72     47     59     3     
  139 3     39     47     72     2     
  140 3     59     47     72     2     
  141 3     40     48     71     1     
  142 3     60     48     71     1     
  143 3     40     48     60     4     
  144 3     71     48     60     4     
  145 3     41     49     61     3     
  146 3     66     49     61     3     
  147 3     41     49     66     2     
  148 3     61     49     66     2     
  149 3     42     50     62     4     
  150 3     65     50     62     4     
  151 3     42     50     65     1     
  152 3     62     50     65     1     
  153 3     43     51     68     4     
  154 3     63     51     68     4     
  155 3     43     51     63     1     
  156 3     68     51     63     1     
  157 3     44     52     64     2     
  158 3     67     52     64     2     
  159 3     44     52     67     3     
  160 3     64     52     67     3     

Impropers

    1 1     21     5      37     33    
    2 1     22     6      38     34    
    3 1     23     7      35     39    
    4 1     24     8      36     40    
    5 1     25     9      41     29    
    6 1     26     10     42     30    
    7 1     27     11     31     43    
    8 1     28     12     44     32    
    9 1     29     13     25     37    
   10 1     30     14     26     38    
   11 1     31     15     27     39    
   12 1     32     16     28     40    
   13 1     33     17     21     41    
   14 1     34     18     22     42    
   15 1     35     19     23     43    
   16 1     36     20     24     44    
   17 1     37     21     29     45    
   18 1     38     22     30     46    
   19 1     39     23     31     47    
   20 1     40     24     32     48    
   21 1     41     25     33     49    
   22 1     42     26     34     50    
   23 1     43     27     35     51    
   24 1     44     28     36     52    
   25 2     45     37     57     70    
   26 2     46     38     58     69    
   27 2     47     39     59     72    
   28 2     48     40     71     60    
   29 2     49     41     61     66    
   30 2     50     42     62     65    
   31 2     51     43     68     63    
   32 2     52     44     64     67    
