Created by Ryther's code on 2024-12-06 18:09:21.990086

    510 atoms
    600 bonds
    1044 angles
    1296 dihedrals
    264 impropers

    5 atom types
    6 bond types
    9 angle types
    3 dihedral types
    2 improper types

0.00000000 41.5262 xlo xhi
0.00000000 35.96274412 ylo yhi
0.00000000 17.4916 zlo zhi
-20.7631 0.0 0.0 xy xz yz 

Masses 

    1    12.0107
    2    1.00794
    3    15.9994
    4    15.9994
    5      65.38

Pair Coeffs

    1       0.10500      3.43085 # C_R C_R
    2       0.04400      2.57113 # H_ H_
    3       0.06000      3.11815 # O_2_M O_2_M
    4       0.06000      3.11815 # O_3_f O_3_f
    5       0.12400      2.46155 # Zn3f2 Zn3f2

Bond Coeffs

    1     122.16486      2.01487 # O_2_M Zn3f2 bond order=0.5
    2     122.15424      2.01487 # O_3_f Zn3f2 bond order=0.5
    3     357.44038      1.08142 # C_R H_ bond order=1.0
    4     391.66951      1.45800 # C_R C_R bond order=1.0
    5     714.55744      1.26901 # C_R O_2_M bond order=1.5
    6     462.65505      1.37926 # C_R C_R bond order=1.5

Angle Coeffs

    1  fourier                131.50718      0.34375      0.37500      0.28125 # O_2_M Zn3f2 O_2_M
    2  fourier                131.49574      0.34375      0.37500      0.28125 # O_2_M Zn3f2 O_3_f
    3  cosine/periodic        137.71425           -1            3 # C_R C_R O_2_M
    4  cosine/periodic        206.77843           -1            3 # O_2_M C_R O_2_M
    5  cosine/periodic        102.18328           -1            3 # C_R C_R C_R
    6  cosine/periodic        111.29751           -1            3 # C_R C_R C_R
    7  cosine/periodic         57.28902           -1            3 # C_R C_R H_
    8  cosine/periodic         42.21907           -1            3 # C_R O_2_M Zn3f2
    9  fourier                 42.55738      0.34375      0.37500      0.28125 # Zn3f2 O_3_f Zn3f2

Dihedral Coeffs

    1       1.25000           -1            2 # X C_R C_R X bond order=1.0
    2       6.73711           -1            2 # X C_R O_2_M X bond order=1.5
    3       3.36856           -1            2 # X C_R C_R X bond order=1.5

Improper Coeffs

    1      16.66667      1.00000     -1.00000      0.00000            1 # C_R X X X O_2 present=True
    2       2.00000      1.00000     -1.00000      0.00000            1 # C_R X X X O_2 present=False

Atoms

    1 1     5      0.00000      7.09309     14.44911     11.53396
    2 1     5      0.00000      4.70326     34.88098     11.53396
    3 1     5      0.00000    -11.79635     22.59539     11.53396
    4 1     5      0.00000     13.67001     21.51363      2.78816
    5 1     5      0.00000     16.05984      1.08176      2.78816
    6 1     5      0.00000     32.55945     13.36735      2.78816
    7 1     5      0.00000     13.67001     21.51363      5.95764
    8 1     5      0.00000     16.05984      1.08176      5.95764
    9 1     5      0.00000     32.55945     13.36735      5.95764
   10 1     5      0.00000      7.09309     14.44911     14.70344
   11 1     5      0.00000      4.70326     34.88098     14.70344
   12 1     5      0.00000    -11.79635     22.59539     14.70344
   13 1     5      0.00000      7.04222     17.21069     13.11870
   14 1     5      0.00000      4.48317     15.35178     13.11870
   15 1     5      0.00000      2.33709     33.45614     13.11870
   16 1     5      0.00000      5.22649     32.16939     13.11870
   17 1     5      0.00000     -9.37932     21.25866     13.11870
   18 1     5      0.00000     -9.70966     24.40432     13.11870
   19 1     5      0.00000     13.72088     18.75205      4.37290
   20 1     5      0.00000     16.27993     20.61097      4.37290
   21 1     5      0.00000     18.42601      2.50660      4.37290
   22 1     5      0.00000     15.53661      3.79335      4.37290
   23 1     5      0.00000     30.14242     14.70409      4.37290
   24 1     5      0.00000     30.47276     11.55843      4.37290
   25 1     2      0.00000      9.75243     15.77686      8.52890
   26 1     2      0.00000      9.55103     19.25445     10.47572
   27 1     2      0.00000      1.84584     14.76990      9.88450
   28 1     2      0.00000      0.65819     14.48220      7.96742
   29 1     2      0.00000      3.80795     12.79554      6.24450
   30 1     2      0.00000      4.99353     13.06526      8.20356
   31 1     2      0.00000     -0.49624     13.43208      6.37394
   32 1     2      0.00000     -2.46250     12.62292      2.51354
   33 1     2      0.00000     -4.72983     12.47188      2.60100
   34 1     2      0.00000     -4.82742     14.11538      6.24625
   35 1     2      0.00000     -2.53310     14.24125      6.12906
   36 1     2      0.00000     22.98683      0.55742      8.52890
   37 1     2      0.00000     -0.68726     34.60695     10.47572
   38 1     2      0.00000      7.04907     30.17634      9.88450
   39 1     2      0.00000      7.89205     29.29166      7.96742
   40 1     2      0.00000      7.77786     32.86276      6.24450
   41 1     2      0.00000      6.95149     33.75463      8.20356
   42 1     2      0.00000      9.37869     28.81695      6.37394
   43 1     2      0.00000     29.55004     19.62847      8.52890
   44 1     2      0.00000     -8.86377     18.06409     10.47572
   45 1     2      0.00000     -8.89491     26.97925      9.88450
   46 1     2      0.00000     -8.55024     28.15164      7.96742
   47 1     2      0.00000    -11.58581     26.26719      6.24450
   48 1     2      0.00000    -11.94501     25.10559      8.20356
   49 1     2      0.00000     -8.88245     29.67646      6.37394
   50 1     2      0.00000     -8.60008     31.78387      2.51354
   51 1     2      0.00000     -7.59722     33.82296      2.60100
   52 1     2      0.00000     -6.12511     33.08572      6.24625
   53 1     2      0.00000     -7.16327     31.03585      6.12906
   54 1     2      0.00000     11.01067     20.18589     17.27470
   55 1     2      0.00000     11.21207     16.70829      1.72992
   56 1     2      0.00000     18.91726     21.19285      1.13870
   57 1     2      0.00000     20.10491     21.48055     16.71322
   58 1     2      0.00000     16.95515     23.16720     14.99030
   59 1     2      0.00000     15.76957     22.89748     16.94936
   60 1     2      0.00000     21.25934     22.53066     15.11974
   61 1     2      0.00000     18.88612     17.39878      5.29296
   62 1     2      0.00000     20.25648     15.55748      5.34019
   63 1     2      0.00000     17.38287     13.36376      3.61376
   64 1     2      0.00000     16.00420     15.19066      3.59277
   65 1     2      0.00000     -2.22373     35.40532     17.27470
   66 1     2      0.00000     21.45036      1.35580      1.72992
   67 1     2      0.00000     13.71403      5.78641      1.13870
   68 1     2      0.00000     12.87105      6.67109     16.71322
   69 1     2      0.00000     12.98524      3.09999     14.99030
   70 1     2      0.00000     13.81161      2.20811     16.94936
   71 1     2      0.00000     11.38441      7.14580     15.11974
   72 1     2      0.00000     -8.78694     16.33428     17.27470
   73 1     2      0.00000     29.62687     17.89866      1.72992
   74 1     2      0.00000     29.65801      8.98349      1.13870
   75 1     2      0.00000     29.31334      7.81111     16.71322
   76 1     2      0.00000     32.34891      9.69556     14.99030
   77 1     2      0.00000     32.70811     10.85715     16.94936
   78 1     2      0.00000     29.64555      6.28629     15.11974
   79 1     2      0.00000     11.01067     20.18589      8.96270
   80 1     2      0.00000     11.21207     16.70829      7.01588
   81 1     2      0.00000     18.91726     21.19285      7.60710
   82 1     2      0.00000     20.10491     21.48055      9.52418
   83 1     2      0.00000     16.95515     23.16720     11.24710
   84 1     2      0.00000     15.76957     22.89748      9.28804
   85 1     2      0.00000     21.25934     22.53066     11.11766
   86 1     2      0.00000     23.22560     23.33982     14.97806
   87 1     2      0.00000     25.49293     23.49086     14.89060
   88 1     2      0.00000     25.59052     21.84737     11.24535
   89 1     2      0.00000     23.29620     21.72150     11.36254
   90 1     2      0.00000     -2.22373     35.40532      8.96270
   91 1     2      0.00000     21.45036      1.35580      7.01588
   92 1     2      0.00000     13.71403      5.78641      7.60710
   93 1     2      0.00000     12.87105      6.67109      9.52418
   94 1     2      0.00000     12.98524      3.09999     11.24710
   95 1     2      0.00000     13.81161      2.20811      9.28804
   96 1     2      0.00000     11.38441      7.14580     11.11766
   97 1     2      0.00000      9.70052      8.44405     14.97806
   98 1     2      0.00000      8.43605     10.33210     14.89060
   99 1     2      0.00000      9.81056     11.23836     11.24535
  100 1     2      0.00000     11.06673      9.31435     11.36254
  101 1     2      0.00000     17.01536      7.65647      3.45284
  102 1     2      0.00000     17.92478      9.76389      3.40561
  103 1     2      0.00000     21.26141      8.37213      5.13204
  104 1     2      0.00000     20.36860      6.26471      5.15303
  105 1     2      0.00000     -8.78694     16.33428      8.96270
  106 1     2      0.00000     29.62687     17.89866      7.01588
  107 1     2      0.00000     29.65801      8.98349      7.60710
  108 1     2      0.00000     29.31334      7.81111      9.52418
  109 1     2      0.00000     32.34891      9.69556     11.24710
  110 1     2      0.00000     32.70811     10.85715      9.28804
  111 1     2      0.00000     29.64555      6.28629     11.11766
  112 1     2      0.00000     29.36318      4.17887     14.97806
  113 1     2      0.00000     28.36032      2.13978     14.89060
  114 1     2      0.00000     26.88821      2.87702     11.24535
  115 1     2      0.00000     27.92637      4.92690     11.36254
  116 1     2      0.00000     26.38782     10.90750      3.45284
  117 1     2      0.00000     24.10804     10.64138      3.40561
  118 1     2      0.00000     23.64502     14.22686      5.13204
  119 1     2      0.00000     25.91650     14.50737      5.15303
  120 1     2      0.00000      9.75243     15.77686      0.21690
  121 1     2      0.00000      9.55103     19.25445     15.76168
  122 1     2      0.00000      1.84584     14.76990     16.35290
  123 1     2      0.00000      0.65819     14.48220      0.77838
  124 1     2      0.00000      3.80795     12.79554      2.50130
  125 1     2      0.00000      4.99353     13.06526      0.54224
  126 1     2      0.00000     -0.49624     13.43208      2.37186
  127 1     2      0.00000      1.87698     18.56397     12.19864
  128 1     2      0.00000      0.50662     20.40526     12.15141
  129 1     2      0.00000      3.38023     22.59899     13.87784
  130 1     2      0.00000      4.75890     20.77208     13.89883
  131 1     2      0.00000     22.98683      0.55742      0.21690
  132 1     2      0.00000     -0.68726     34.60695     15.76168
  133 1     2      0.00000      7.04907     30.17634     16.35290
  134 1     2      0.00000      7.89205     29.29166      0.77838
  135 1     2      0.00000      7.77786     32.86276      2.50130
  136 1     2      0.00000      6.95149     33.75463      0.54224
  137 1     2      0.00000      9.37869     28.81695      2.37186
  138 1     2      0.00000     11.06258     27.51869      6.23226
  139 1     2      0.00000     12.32705     25.63065      6.14480
  140 1     2      0.00000     10.95254     24.72439      2.49955
  141 1     2      0.00000      9.69637     26.64839      2.61674
  142 1     2      0.00000      3.74774     28.30628     12.19864
  143 1     2      0.00000      2.83832     26.19886     12.15141
  144 1     2      0.00000     -0.49831     27.59062     13.87784
  145 1     2      0.00000      0.39450     29.69803     13.89883
  146 1     2      0.00000     29.55004     19.62847      0.21690
  147 1     2      0.00000     -8.86377     18.06409     15.76168
  148 1     2      0.00000     -8.89491     26.97925     16.35290
  149 1     2      0.00000     -8.55024     28.15164      0.77838
  150 1     2      0.00000    -11.58581     26.26719      2.50130
  151 1     2      0.00000    -11.94501     25.10559      0.54224
  152 1     2      0.00000     -8.88245     29.67646      2.37186
  153 1     2      0.00000     -5.62472     25.05524     12.19864
  154 1     2      0.00000     -3.34494     25.32137     12.15141
  155 1     2      0.00000     -2.88192     21.73588     13.87784
  156 1     2      0.00000     -5.15340     21.45537     13.89883
  157 1     2      0.00000     -0.86582     21.83298     13.11870
  158 1     2      0.00000      2.28809     24.29643     13.11870
  159 1     2      0.00000     -1.42227     25.79608     13.11870
  160 1     2      0.00000     21.62892     14.12976      4.37290
  161 1     2      0.00000     18.47501     11.66631      4.37290
  162 1     2      0.00000     22.18537     10.16667      4.37290
  163 1     2      0.00000      2.94213     13.71259      4.37290
  164 1     2      0.00000      7.41658     31.65441      4.37290
  165 1     2      0.00000    -10.35871     26.55849      4.37290
  166 1     2      0.00000     17.82097     22.25015     13.11870
  167 1     2      0.00000     13.34652      4.30834     13.11870
  168 1     2      0.00000     31.12181      9.40426     13.11870
  169 1     1      0.00000      8.57101     16.81762     10.66113
  170 1     1      0.00000      9.51199     17.41963      9.66236
  171 1     1      0.00000     10.00117     16.68456      8.61811
  172 1     1      0.00000      9.87701     18.73731      9.77606
  173 1     1      0.00000      4.38973     14.19018     10.46348
  174 1     1      0.00000      3.57333     13.97656      9.23906
  175 1     1      0.00000      2.25591     14.38114      9.14811
  176 1     1      0.00000      1.54997     14.21499      7.98841
  177 1     1      0.00000      2.09956     13.67519      6.86021
  178 1     1      0.00000      3.40577     13.21523      6.96865
  179 1     1      0.00000      4.12127     13.37634      8.15633
  180 1     1      0.00000      1.35168     13.59536      5.58157
  181 1     1      0.00000     -0.03675     13.48423      5.56758
  182 1     1      0.00000     -2.92344     12.91063      3.27093
  183 1     1      0.00000     -4.28135     12.86028      3.31641
  184 1     1      0.00000     -4.36856     13.83127      5.48711
  185 1     1      0.00000     -2.98366     13.86364      5.40840
  186 1     1      0.00000      1.91311     34.97665     10.66113
  187 1     1      0.00000      0.92126     35.49055      9.66236
  188 1     1      0.00000     22.07637      0.31899      8.61811
  189 1     1      0.00000     -0.40239     35.14783      9.77606
  190 1     1      0.00000      6.27918     32.66928     10.46348
  191 1     1      0.00000      6.87238     32.06906      9.23906
  192 1     1      0.00000      7.18071     30.72585      9.14811
  193 1     1      0.00000      7.67757     30.19756      7.98841
  194 1     1      0.00000      7.87025     30.94342      6.86021
  195 1     1      0.00000      7.61549     32.30461      6.96865
  196 1     1      0.00000      7.11821     32.84370      8.15633
  197 1     1      0.00000      8.31334     30.33565      5.58157
  198 1     1      0.00000      9.10379     29.18880      5.56758
  199 1     1      0.00000    -10.48412     20.13122     10.66113
  200 1     1      0.00000    -10.43325     19.01530      9.66236
  201 1     1      0.00000     30.21176     18.95920      8.61811
  202 1     1      0.00000     -9.47462     18.04035      9.77606
  203 1     1      0.00000    -10.66891     25.06603     10.46348
  204 1     1      0.00000    -10.44571     25.87987      9.23906
  205 1     1      0.00000     -9.43662     26.81850      9.14811
  206 1     1      0.00000     -9.22754     27.51294      7.98841
  207 1     1      0.00000     -9.96982     27.30687      6.86021
  208 1     1      0.00000    -11.02126     26.40564      6.96865
  209 1     1      0.00000    -11.23948     25.70545      8.15633
  210 1     1      0.00000     -9.66502     27.99448      5.58157
  211 1     1      0.00000     -9.06704     29.25246      5.56758
  212 1     1      0.00000     -8.12045     32.03921      3.27093
  213 1     1      0.00000     -7.48510     33.24036      3.31641
  214 1     1      0.00000     -6.60059     32.83039      5.48711
  215 1     1      0.00000     -7.26501     31.61485      5.40840
  216 1     1      0.00000     12.19209     19.14513      1.91533
  217 1     1      0.00000     11.25111     18.54311      0.91656
  218 1     1      0.00000     10.76193     19.27819     17.36391
  219 1     1      0.00000     10.88609     17.22544      1.03026
  220 1     1      0.00000     16.37337     21.77256      1.71768
  221 1     1      0.00000     17.18977     21.98618      0.49326
  222 1     1      0.00000     18.50719     21.58160      0.40231
  223 1     1      0.00000     19.21313     21.74775     16.73421
  224 1     1      0.00000     18.66354     22.28755     15.60601
  225 1     1      0.00000     17.35733     22.74751     15.71445
  226 1     1      0.00000     16.64183     22.58640     16.90213
  227 1     1      0.00000     19.41142     22.36739     14.32737
  228 1     1      0.00000     20.79985     22.47851     14.31338
  229 1     1      0.00000     18.59128     16.59321      4.93613
  230 1     1      0.00000     19.41350     15.49994      4.95012
  231 1     1      0.00000     17.70054     14.18011      3.92162
  232 1     1      0.00000     16.87189     15.27733      3.91462
  233 1     1      0.00000     18.84999      0.98610      1.91533
  234 1     1      0.00000     19.84184      0.47219      0.91656
  235 1     1      0.00000     -1.31327     35.64375     17.36391
  236 1     1      0.00000     21.16549      0.81492      1.03026
  237 1     1      0.00000     14.48392      3.29347      1.71768
  238 1     1      0.00000     13.89072      3.89369      0.49326
  239 1     1      0.00000     13.58239      5.23689      0.40231
  240 1     1      0.00000     13.08553      5.76519     16.73421
  241 1     1      0.00000     12.89285      5.01932     15.60601
  242 1     1      0.00000     13.14761      3.65813     15.71445
  243 1     1      0.00000     13.64489      3.11905     16.90213
  244 1     1      0.00000     12.44976      5.62709     14.32737
  245 1     1      0.00000     11.65931      6.77394     14.31338
  246 1     1      0.00000     31.24722     15.83152      1.91533
  247 1     1      0.00000     31.19635     16.94744      0.91656
  248 1     1      0.00000     -9.44866     17.00355     17.36391
  249 1     1      0.00000     30.23772     17.92239      1.03026
  250 1     1      0.00000     31.43201     10.89671      1.71768
  251 1     1      0.00000     31.20881     10.08287      0.49326
  252 1     1      0.00000     30.19972      9.14425      0.40231
  253 1     1      0.00000     29.99064      8.44981     16.73421
  254 1     1      0.00000     30.73292      8.65587     15.60601
  255 1     1      0.00000     31.78436      9.55710     15.71445
  256 1     1      0.00000     32.00258     10.25729     16.90213
  257 1     1      0.00000     30.42812      7.96827     14.32737
  258 1     1      0.00000     29.83014      6.71029     14.31338
  259 1     1      0.00000     12.19209     19.14513      6.83047
  260 1     1      0.00000     11.25111     18.54311      7.82924
  261 1     1      0.00000     10.76193     19.27819      8.87349
  262 1     1      0.00000     10.88609     17.22544      7.71554
  263 1     1      0.00000     16.37337     21.77256      7.02812
  264 1     1      0.00000     17.18977     21.98618      8.25254
  265 1     1      0.00000     18.50719     21.58160      8.34349
  266 1     1      0.00000     19.21313     21.74775      9.50319
  267 1     1      0.00000     18.66354     22.28755     10.63139
  268 1     1      0.00000     17.35733     22.74751     10.52295
  269 1     1      0.00000     16.64183     22.58640      9.33527
  270 1     1      0.00000     19.41142     22.36739     11.91003
  271 1     1      0.00000     20.79985     22.47851     11.92402
  272 1     1      0.00000     23.68654     23.05212     14.22067
  273 1     1      0.00000     25.04445     23.10247     14.17519
  274 1     1      0.00000     25.13166     22.13147     12.00449
  275 1     1      0.00000     23.74676     22.09911     12.08320
  276 1     1      0.00000     18.84999      0.98610      6.83047
  277 1     1      0.00000     19.84184      0.47219      7.82924
  278 1     1      0.00000     -1.31327     35.64375      8.87349
  279 1     1      0.00000     21.16549      0.81492      7.71554
  280 1     1      0.00000     14.48392      3.29347      7.02812
  281 1     1      0.00000     13.89072      3.89369      8.25254
  282 1     1      0.00000     13.58239      5.23689      8.34349
  283 1     1      0.00000     13.08553      5.76519      9.50319
  284 1     1      0.00000     12.89285      5.01932     10.63139
  285 1     1      0.00000     13.14761      3.65813     10.52295
  286 1     1      0.00000     13.64489      3.11905      9.33527
  287 1     1      0.00000     12.44976      5.62709     11.91003
  288 1     1      0.00000     11.65931      6.77394     11.92402
  289 1     1      0.00000      9.71921      8.98709     14.22067
  290 1     1      0.00000      8.99665     10.13790     14.17519
  291 1     1      0.00000      9.79395     10.69892     12.00449
  292 1     1      0.00000     10.51443      9.51574     12.08320
  293 1     1      0.00000     17.86042      7.80392      3.80967
  294 1     1      0.00000     18.39611      9.06261      3.79568
  295 1     1      0.00000     20.39559      8.23906      4.82418
  296 1     1      0.00000     19.85970      6.97282      4.83118
  297 1     1      0.00000     31.24722     15.83152      6.83047
  298 1     1      0.00000     31.19635     16.94744      7.82924
  299 1     1      0.00000     -9.44866     17.00355      8.87349
  300 1     1      0.00000     30.23772     17.92239      7.71554
  301 1     1      0.00000     31.43201     10.89671      7.02812
  302 1     1      0.00000     31.20881     10.08287      8.25254
  303 1     1      0.00000     30.19972      9.14425      8.34349
  304 1     1      0.00000     29.99064      8.44981      9.50319
  305 1     1      0.00000     30.73292      8.65587     10.63139
  306 1     1      0.00000     31.78436      9.55710     10.52295
  307 1     1      0.00000     32.00258     10.25729      9.33527
  308 1     1      0.00000     30.42812      7.96827     11.91003
  309 1     1      0.00000     29.83014      6.71029     11.92402
  310 1     1      0.00000     28.88355      3.92354     14.22067
  311 1     1      0.00000     28.24820      2.72238     14.17519
  312 1     1      0.00000     27.36369      3.13236     12.00449
  313 1     1      0.00000     28.02811      4.34790     12.08320
  314 1     1      0.00000     25.83760     11.56562      3.80967
  315 1     1      0.00000     24.47969     11.40019      3.79568
  316 1     1      0.00000     24.19316     13.54357      4.82418
  317 1     1      0.00000     25.55772     13.71259      4.83118
  318 1     1      0.00000      8.57101     16.81762     15.57627
  319 1     1      0.00000      9.51199     17.41963     16.57504
  320 1     1      0.00000     10.00117     16.68456      0.12769
  321 1     1      0.00000      9.87701     18.73731     16.46134
  322 1     1      0.00000      4.38973     14.19018     15.77392
  323 1     1      0.00000      3.57333     13.97656     16.99834
  324 1     1      0.00000      2.25591     14.38114     17.08929
  325 1     1      0.00000      1.54997     14.21499      0.75739
  326 1     1      0.00000      2.09956     13.67519      1.88559
  327 1     1      0.00000      3.40577     13.21523      1.77715
  328 1     1      0.00000      4.12127     13.37634      0.58947
  329 1     1      0.00000      1.35168     13.59536      3.16423
  330 1     1      0.00000     -0.03675     13.48423      3.17822
  331 1     1      0.00000      2.17182     19.36953     12.55547
  332 1     1      0.00000      1.34960     20.46280     12.54148
  333 1     1      0.00000      3.06256     21.78263     13.56998
  334 1     1      0.00000      3.89121     20.68541     13.57698
  335 1     1      0.00000      1.91311     34.97665     15.57627
  336 1     1      0.00000      0.92126     35.49055     16.57504
  337 1     1      0.00000     22.07637      0.31899      0.12769
  338 1     1      0.00000     -0.40239     35.14783     16.46134
  339 1     1      0.00000      6.27918     32.66928     15.77392
  340 1     1      0.00000      6.87238     32.06906     16.99834
  341 1     1      0.00000      7.18071     30.72585     17.08929
  342 1     1      0.00000      7.67757     30.19756      0.75739
  343 1     1      0.00000      7.87025     30.94342      1.88559
  344 1     1      0.00000      7.61549     32.30461      1.77715
  345 1     1      0.00000      7.11821     32.84370      0.58947
  346 1     1      0.00000      8.31334     30.33565      3.16423
  347 1     1      0.00000      9.10379     29.18880      3.17822
  348 1     1      0.00000     11.04389     26.97565      5.47487
  349 1     1      0.00000     11.76645     25.82485      5.42939
  350 1     1      0.00000     10.96915     25.26383      3.25869
  351 1     1      0.00000     10.24867     26.44700      3.33740
  352 1     1      0.00000      2.90268     28.15883     12.55547
  353 1     1      0.00000      2.36699     26.90013     12.54148
  354 1     1      0.00000      0.36751     27.72368     13.56998
  355 1     1      0.00000      0.90340     28.98993     13.57698
  356 1     1      0.00000    -10.48412     20.13122     15.57627
  357 1     1      0.00000    -10.43325     19.01530     16.57504
  358 1     1      0.00000     30.21176     18.95920      0.12769
  359 1     1      0.00000     -9.47462     18.04035     16.46134
  360 1     1      0.00000    -10.66891     25.06603     15.77392
  361 1     1      0.00000    -10.44571     25.87987     16.99834
  362 1     1      0.00000     -9.43662     26.81850     17.08929
  363 1     1      0.00000     -9.22754     27.51294      0.75739
  364 1     1      0.00000     -9.96982     27.30687      1.88559
  365 1     1      0.00000    -11.02126     26.40564      1.77715
  366 1     1      0.00000    -11.23948     25.70545      0.58947
  367 1     1      0.00000     -9.66502     27.99448      3.16423
  368 1     1      0.00000     -9.06704     29.25246      3.17822
  369 1     1      0.00000     -5.07450     24.39713     12.55547
  370 1     1      0.00000     -3.71659     24.56255     12.54148
  371 1     1      0.00000     -3.43006     22.41917     13.56998
  372 1     1      0.00000     -4.79462     22.25015     13.57698
  373 1     1      0.00000      8.32123     12.32192     13.11870
  374 1     1      0.00000      4.36004     18.25001     13.11870
  375 1     1      0.00000      3.46474     19.47562     13.11870
  376 1     1      0.00000      1.77504     21.69237     13.11870
  377 1     1      0.00000      0.84755     22.87087     13.11870
  378 1     1      0.00000     -0.52302     22.69501     13.11870
  379 1     1      0.00000     26.69449      1.04544     13.11870
  380 1     1      0.00000      2.77810     30.61365     13.11870
  381 1     1      0.00000      2.16435     29.22548     13.11870
  382 1     1      0.00000      1.08944     26.65379     13.11870
  383 1     1      0.00000      0.53257     25.26131     13.11870
  384 1     1      0.00000      1.37016     24.16229     13.11870
  385 1     1      0.00000     27.27358     22.59539     13.11870
  386 1     1      0.00000     -7.13815     23.06183     13.11870
  387 1     1      0.00000     -5.62908     23.22438     13.11870
  388 1     1      0.00000     -2.86448     23.57933     13.11870
  389 1     1      0.00000     -1.38012     23.79331     13.11870
  390 1     1      0.00000     -0.84713     25.06819     13.11870
  391 1     1      0.00000     12.44187     23.64083      4.37290
  392 1     1      0.00000     16.40306     17.71273      4.37290
  393 1     1      0.00000     17.29836     16.48712      4.37290
  394 1     1      0.00000     18.98806     14.27038      4.37290
  395 1     1      0.00000     19.91555     13.09188      4.37290
  396 1     1      0.00000     21.28612     13.26774      4.37290
  397 1     1      0.00000     -5.93139     34.91731      4.37290
  398 1     1      0.00000     17.98500      5.34910      4.37290
  399 1     1      0.00000     18.59875      6.73726      4.37290
  400 1     1      0.00000     19.67366      9.30896      4.37290
  401 1     1      0.00000     20.23053     10.70143      4.37290
  402 1     1      0.00000     19.39294     11.80046      4.37290
  403 1     1      0.00000     -6.51048     13.36735      4.37290
  404 1     1      0.00000     27.90125     12.90092      4.37290
  405 1     1      0.00000     26.39218     12.73836      4.37290
  406 1     1      0.00000     23.62758     12.38341      4.37290
  407 1     1      0.00000     22.14322     12.16943      4.37290
  408 1     1      0.00000     21.61023     10.89455      4.37290
  409 1     1      0.00000      2.01319     13.64427      4.37290
  410 1     1      0.00000     -0.74664     13.44647      4.37290
  411 1     1      0.00000     -2.23037     13.39972      4.37290
  412 1     1      0.00000     -5.02633     13.35009      4.37290
  413 1     1      0.00000      7.94022     30.88409      4.37290
  414 1     1      0.00000      9.49144     28.59290      4.37290
  415 1     1      0.00000     10.27379     27.33133      4.37290
  416 1     1      0.00000     11.71475     24.93477      4.37290
  417 1     1      0.00000     -9.95341     27.39714      4.37290
  418 1     1      0.00000     -8.74479     29.88612      4.37290
  419 1     1      0.00000     -8.04342     31.19444      4.37290