Created by Ryther's code on 2024-12-06 17:37:47.266459

    384 atoms
    456 bonds
    768 angles
    1248 dihedrals
    216 impropers

    5 atom types
    8 bond types
    11 angle types
    6 dihedral types
    2 improper types

0.00000000 30.0198 xlo xhi
0.00000000 25.99790942 ylo yhi
0.00000000 13.616 zlo zhi
-15.0099 0.0 0.0 xy xz yz 

Masses 

    1    1.00794
    2    12.0107
    3    12.0107
    4    15.9994
    5     10.811

Pair Coeffs

    1       0.01520      2.84642 # H_ H_
    2       0.09510      3.47299 # C_R C_R
    3       0.09510      3.47299 # C_2 C_2
    4       0.09570      3.03315 # O_3 O_3
    5       0.09500      3.58141 # B_2 B_2

Bond Coeffs

    1     350.00000      1.48000 # B_2 C_R bond order=1.0
    2     350.00000      1.44000 # B_2 O_3 bond order=1.0
    3     350.00000      1.02000 # C_R H_ bond order=1.0
    4     350.00000      0.99000 # C_2 H_ bond order=1.0
    5     525.00000      1.39000 # C_R C_R bond order=1.5
    6     350.00000      1.39000 # C_R C_R bond order=1.0
    7     350.00000      1.35000 # C_R O_3 bond order=1.0
    8     350.00000      1.36000 # C_2 C_R bond order=1.0

Angle Coeffs

    1      66.66667    120.00000 # C_R B_2 O_3
    2      66.66667    120.00000 # O_3 B_2 O_3
    3      66.66667    120.00000 # B_2 C_R C_R
    4      66.66667    120.00000 # C_R C_R C_R
    5      66.66667    120.00000 # C_R C_R H_
    6      66.66667    120.00000 # C_R C_R O_3
    7      66.66667    120.00000 # C_2 C_R O_3
    8      66.66667    120.00000 # C_2 C_R C_R
    9      66.66667    120.00000 # C_R C_2 H_
    10     66.66667    120.00000 # C_R C_2 C_R
    11     53.34897    104.51000 # B_2 O_3 C_R

Dihedral Coeffs

    1       0.62500            2          540      0.00000 # X B_2 C_R X bond order=1.0
    2       0.50000            2          540      0.00000 # X B_2 O_3 X bond order=1.0
    3       3.12500            2          540      0.00000 # X C_R C_R X bond order=1.5
    4       1.25000            2          540      0.00000 # X C_R C_R X bond order=1.0
    5       0.50000            2          540      0.00000 # X C_R O_3 X bond order=1.0
    6       0.62500            2          540      0.00000 # X C_2 C_R X bond order=1.0

Improper Coeffs

    1      13.33333      0.00000 # C X X X
    2      13.33333      0.00000 # C X X X

Atoms

    1 1     5      0.00000     -4.94801     14.47538      1.70200
    2 1     5      0.00000      4.94786     14.47512      1.70200
    3 1     5      0.00000      0.00015     23.04533      1.70200
    4 1     5      0.00000     19.95791     11.52253      1.70200
    5 1     5      0.00000     10.06204     11.52279      1.70200
    6 1     5      0.00000     15.00975      2.95258      1.70200
    7 1     1      0.00000      7.50435     10.53123      1.70200
    8 1     1      0.00000     17.14731      1.23334      1.70200
    9 1     1      0.00000     20.37804     14.23334      1.70200
   10 1     1      0.00000      7.50555     15.46668      1.70200
   11 1     1      0.00000     -2.13741     24.76457      1.70200
   12 1     1      0.00000     -5.36814     11.76457      1.70200
   13 1     1      0.00000      5.36814     11.76457      1.70200
   14 1     1      0.00000     -7.50555     15.46668      1.70200
   15 1     1      0.00000      2.13741     24.76457      1.70200
   16 1     1      0.00000      9.64176     14.23334      1.70200
   17 1     1      0.00000     22.51545     10.53123      1.70200
   18 1     1      0.00000     12.87249      1.23334      1.70200
   19 1     1      0.00000     11.63117      7.75466      1.70200
   20 1     1      0.00000     17.48848      6.19556      1.70200
   21 1     1      0.00000     15.91004     12.04769      1.70200
   22 1     1      0.00000      3.37873     18.24325      1.70200
   23 1     1      0.00000     -2.47858     19.80235      1.70200
   24 1     1      0.00000     -0.90014     13.95022      1.70200
   25 1     1      0.00000      0.90014     13.95022      1.70200
   26 1     1      0.00000     -3.37873     18.24325      1.70200
   27 1     1      0.00000      2.47858     19.80235      1.70200
   28 1     1      0.00000     14.10976     12.04769      1.70200
   29 1     1      0.00000     18.38863      7.75466      1.70200
   30 1     1      0.00000     12.53132      6.19556      1.70200
   31 1     2      0.00000     21.30295     12.29909      1.70200
   32 1     2      0.00000      8.71700     12.29935      1.70200
   33 1     2      0.00000     15.00975      1.39947      1.70200
   34 1     2      0.00000     -6.29305     13.69882      1.70200
   35 1     2      0.00000      6.29290     13.69856      1.70200
   36 1     2      0.00000      0.00015     24.59844      1.70200
   37 1     2      0.00000     13.79950      0.69882      1.70200
   38 1     2      0.00000     22.51485     11.60131      1.70200
   39 1     2      0.00000      8.71535     13.69778      1.70200
   40 1     2      0.00000      1.21040     25.29909      1.70200
   41 1     2      0.00000     -7.50495     14.39660      1.70200
   42 1     2      0.00000      6.29455     12.30013      1.70200
   43 1     2      0.00000     -6.29455     12.30013      1.70200
   44 1     2      0.00000     -1.21040     25.29909      1.70200
   45 1     2      0.00000      7.50495     14.39660      1.70200
   46 1     2      0.00000     21.30445     13.69778      1.70200
   47 1     2      0.00000     16.22030      0.69882      1.70200
   48 1     2      0.00000      7.50495     11.60131      1.70200
   49 1     2      0.00000     15.69615      5.02488      1.70200
   50 1     2      0.00000     17.82005     11.08083      1.70200
   51 1     2      0.00000     11.51349      9.89220      1.70200
   52 1     2      0.00000     -0.68625     20.97303      1.70200
   53 1     2      0.00000     -2.81015     14.91708      1.70200
   54 1     2      0.00000      3.49641     16.10570      1.70200
   55 1     2      0.00000     -3.49641     16.10570      1.70200
   56 1     2      0.00000      0.68625     20.97303      1.70200
   57 1     2      0.00000      2.81015     14.91708      1.70200
   58 1     2      0.00000     18.50631      9.89220      1.70200
   59 1     2      0.00000     14.32365      5.02488      1.70200
   60 1     2      0.00000     12.19975     11.08083      1.70200
   61 1     2      0.00000     16.41873      6.21246      1.70200
   62 1     2      0.00000     16.43029     11.11281      1.70200
   63 1     2      0.00000     12.18068      8.67264      1.70200
   64 1     2      0.00000     -1.40883     19.78545      1.70200
   65 1     3      0.00000     -1.42039     14.88510      1.70200
   66 1     3      0.00000      2.82922     17.32527      1.70200
   67 1     2      0.00000     -2.82922     17.32527      1.70200
   68 1     2      0.00000      1.40883     19.78545      1.70200
   69 1     2      0.00000      1.42039     14.88510      1.70200
   70 1     2      0.00000     17.83912      8.67264      1.70200
   71 1     2      0.00000     13.60107      6.21246      1.70200
   72 1     2      0.00000     13.58951     11.11281      1.70200
   73 1     2      0.00000     15.72332      7.44086      1.70200
   74 1     2      0.00000     15.71416      9.89636      1.70200
   75 1     2      0.00000     13.59221      8.66068      1.70200
   76 1     2      0.00000     -0.71342     18.55705      1.70200
   77 1     2      0.00000     -0.70426     16.10155      1.70200
   78 1     2      0.00000      1.41769     17.33723      1.70200
   79 1     2      0.00000     -1.41769     17.33723      1.70200
   80 1     2      0.00000      0.71342     18.55705      1.70200
   81 1     2      0.00000      0.70426     16.10155      1.70200
   82 1     2      0.00000     16.42759      8.66068      1.70200
   83 1     2      0.00000     14.29648      7.44086      1.70200
   84 1     2      0.00000     14.30564      9.89636      1.70200
   85 1     4      0.00000     16.23786      3.75124      1.70200
   86 1     4      0.00000     18.65220     12.18678      1.70200
   87 1     4      0.00000     10.13964     10.05989      1.70200
   88 1     4      0.00000     -1.22796     22.24667      1.70200
   89 1     4      0.00000     -3.64230     13.81113      1.70200
   90 1     4      0.00000      4.87026     15.93802      1.70200
   91 1     4      0.00000     -4.87026     15.93802      1.70200
   92 1     4      0.00000      1.22796     22.24667      1.70200
   93 1     4      0.00000      3.64230     13.81113      1.70200
   94 1     4      0.00000     19.88016     10.05989      1.70200
   95 1     4      0.00000     13.78194      3.75124      1.70200
   96 1     4      0.00000     11.36760     12.18678      1.70200
   97 1     5      0.00000     -4.94801     14.47538      5.10600
   98 1     5      0.00000      4.94786     14.47512      5.10600
   99 1     5      0.00000      0.00015     23.04533      5.10600
  100 1     5      0.00000     19.95791     11.52253      5.10600
  101 1     5      0.00000     10.06204     11.52279      5.10600
  102 1     5      0.00000     15.00975      2.95258      5.10600
  103 1     1      0.00000      7.50435     10.53123      5.10600
  104 1     1      0.00000     17.14731      1.23334      5.10600
  105 1     1      0.00000     20.37804     14.23334      5.10600
  106 1     1      0.00000      7.50555     15.46668      5.10600
  107 1     1      0.00000     -2.13741     24.76457      5.10600
  108 1     1      0.00000     -5.36814     11.76457      5.10600
  109 1     1      0.00000      5.36814     11.76457      5.10600
  110 1     1      0.00000     -7.50555     15.46668      5.10600
  111 1     1      0.00000      2.13741     24.76457      5.10600
  112 1     1      0.00000      9.64176     14.23334      5.10600
  113 1     1      0.00000     22.51545     10.53123      5.10600
  114 1     1      0.00000     12.87249      1.23334      5.10600
  115 1     1      0.00000     11.63117      7.75466      5.10600
  116 1     1      0.00000     17.48848      6.19556      5.10600
  117 1     1      0.00000     15.91004     12.04769      5.10600
  118 1     1      0.00000      3.37873     18.24325      5.10600
  119 1     1      0.00000     -2.47858     19.80235      5.10600
  120 1     1      0.00000     -0.90014     13.95022      5.10600
  121 1     1      0.00000      0.90014     13.95022      5.10600
  122 1     1      0.00000     -3.37873     18.24325      5.10600
  123 1     1      0.00000      2.47858     19.80235      5.10600
  124 1     1      0.00000     14.10976     12.04769      5.10600
  125 1     1      0.00000     18.38863      7.75466      5.10600
  126 1     1      0.00000     12.53132      6.19556      5.10600
  127 1     2      0.00000     21.30295     12.29909      5.10600
  128 1     2      0.00000      8.71700     12.29935      5.10600
  129 1     2      0.00000     15.00975      1.39947      5.10600
  130 1     2      0.00000     -6.29305     13.69882      5.10600
  131 1     2      0.00000      6.29290     13.69856      5.10600
  132 1     2      0.00000      0.00015     24.59844      5.10600
  133 1     2      0.00000     13.79950      0.69882      5.10600
  134 1     2      0.00000     22.51485     11.60131      5.10600
  135 1     2      0.00000      8.71535     13.69778      5.10600
  136 1     2      0.00000      1.21040     25.29909      5.10600
  137 1     2      0.00000     -7.50495     14.39660      5.10600
  138 1     2      0.00000      6.29455     12.30013      5.10600
  139 1     2      0.00000     -6.29455     12.30013      5.10600
  140 1     2      0.00000     -1.21040     25.29909      5.10600
  141 1     2      0.00000      7.50495     14.39660      5.10600
  142 1     2      0.00000     21.30445     13.69778      5.10600
  143 1     2      0.00000     16.22030      0.69882      5.10600
  144 1     2      0.00000      7.50495     11.60131      5.10600
  145 1     2      0.00000     15.69615      5.02488      5.10600
  146 1     2      0.00000     17.82005     11.08083      5.10600
  147 1     2      0.00000     11.51349      9.89220      5.10600
  148 1     2      0.00000     -0.68625     20.97303      5.10600
  149 1     2      0.00000     -2.81015     14.91708      5.10600
  150 1     2      0.00000      3.49641     16.10570      5.10600
  151 1     2      0.00000     -3.49641     16.10570      5.10600
  152 1     2      0.00000      0.68625     20.97303      5.10600
  153 1     2      0.00000      2.81015     14.91708      5.10600
  154 1     2      0.00000     18.50631      9.89220      5.10600
  155 1     2      0.00000     14.32365      5.02488      5.10600
  156 1     2      0.00000     12.19975     11.08083      5.10600
  157 1     2      0.00000     16.41873      6.21246      5.10600
  158 1     2      0.00000     16.43029     11.11281      5.10600
  159 1     2      0.00000     12.18068      8.67264      5.10600
  160 1     2      0.00000     -1.40883     19.78545      5.10600
  161 1     3      0.00000     -1.42039     14.88510      5.10600
  162 1     3      0.00000      2.82922     17.32527      5.10600
  163 1     2      0.00000     -2.82922     17.32527      5.10600
  164 1     2      0.00000      1.40883     19.78545      5.10600
  165 1     2      0.00000      1.42039     14.88510      5.10600
  166 1     2      0.00000     17.83912      8.67264      5.10600
  167 1     2      0.00000     13.60107      6.21246      5.10600
  168 1     2      0.00000     13.58951     11.11281      5.10600
  169 1     2      0.00000     15.72332      7.44086      5.10600
  170 1     2      0.00000     15.71416      9.89636      5.10600
  171 1     2      0.00000     13.59221      8.66068      5.10600
  172 1     2      0.00000     -0.71342     18.55705      5.10600
  173 1     2      0.00000     -0.70426     16.10155      5.10600
  174 1     2      0.00000      1.41769     17.33723      5.10600
  175 1     2      0.00000     -1.41769     17.33723      5.10600
  176 1     2      0.00000      0.71342     18.55705      5.10600
  177 1     2      0.00000      0.70426     16.10155      5.10600
  178 1     2      0.00000     16.42759      8.66068      5.10600
  179 1     2      0.00000     14.29648      7.44086      5.10600
  180 1     2      0.00000     14.30564      9.89636      5.10600
  181 1     4      0.00000     16.23786      3.75124      5.10600
  182 1     4      0.00000     18.65220     12.18678      5.10600
  183 1     4      0.00000     10.13964     10.05989      5.10600
  184 1     4      0.00000     -1.22796     22.24667      5.10600
  185 1     4      0.00000     -3.64230     13.81113      5.10600
  186 1     4      0.00000      4.87026     15.93802      5.10600
  187 1     4      0.00000     -4.87026     15.93802      5.10600
  188 1     4      0.00000      1.22796     22.24667      5.10600
  189 1     4      0.00000      3.64230     13.81113      5.10600
  190 1     4      0.00000     19.88016     10.05989      5.10600
  191 1     4      0.00000     13.78194      3.75124      5.10600
  192 1     4      0.00000     11.36760     12.18678      5.10600
  193 1     5      0.00000     -4.94801     14.47538      8.51000
  194 1     5      0.00000      4.94786     14.47512      8.51000
  195 1     5      0.00000      0.00015     23.04533      8.51000
  196 1     5      0.00000     19.95791     11.52253      8.51000
  197 1     5      0.00000     10.06204     11.52279      8.51000
  198 1     5      0.00000     15.00975      2.95258      8.51000
  199 1     1      0.00000      7.50435     10.53123      8.51000
  200 1     1      0.00000     17.14731      1.23334      8.51000
  201 1     1      0.00000     20.37804     14.23334      8.51000
  202 1     1      0.00000      7.50555     15.46668      8.51000
  203 1     1      0.00000     -2.13741     24.76457      8.51000
  204 1     1      0.00000     -5.36814     11.76457      8.51000
  205 1     1      0.00000      5.36814     11.76457      8.51000
  206 1     1      0.00000     -7.50555     15.46668      8.51000
  207 1     1      0.00000      2.13741     24.76457      8.51000
  208 1     1      0.00000      9.64176     14.23334      8.51000
  209 1     1      0.00000     22.51545     10.53123      8.51000
  210 1     1      0.00000     12.87249      1.23334      8.51000
  211 1     1      0.00000     11.63117      7.75466      8.51000
  212 1     1      0.00000     17.48848      6.19556      8.51000
  213 1     1      0.00000     15.91004     12.04769      8.51000
  214 1     1      0.00000      3.37873     18.24325      8.51000
  215 1     1      0.00000     -2.47858     19.80235      8.51000
  216 1     1      0.00000     -0.90014     13.95022      8.51000
  217 1     1      0.00000      0.90014     13.95022      8.51000
  218 1     1      0.00000     -3.37873     18.24325      8.51000
  219 1     1      0.00000      2.47858     19.80235      8.51000
  220 1     1      0.00000     14.10976     12.04769      8.51000
  221 1     1      0.00000     18.38863      7.75466      8.51000
  222 1     1      0.00000     12.53132      6.19556      8.51000
  223 1     2      0.00000     21.30295     12.29909      8.51000
  224 1     2      0.00000      8.71700     12.29935      8.51000
  225 1     2      0.00000     15.00975      1.39947      8.51000
  226 1     2      0.00000     -6.29305     13.69882      8.51000
  227 1     2      0.00000      6.29290     13.69856      8.51000
  228 1     2      0.00000      0.00015     24.59844      8.51000
  229 1     2      0.00000     13.79950      0.69882      8.51000
  230 1     2      0.00000     22.51485     11.60131      8.51000
  231 1     2      0.00000      8.71535     13.69778      8.51000
  232 1     2      0.00000      1.21040     25.29909      8.51000
  233 1     2      0.00000     -7.50495     14.39660      8.51000
  234 1     2      0.00000      6.29455     12.30013      8.51000
  235 1     2      0.00000     -6.29455     12.30013      8.51000
  236 1     2      0.00000     -1.21040     25.29909      8.51000
  237 1     2      0.00000      7.50495     14.39660      8.51000
  238 1     2      0.00000     21.30445     13.69778      8.51000
  239 1     2      0.00000     16.22030      0.69882      8.51000
  240 1     2      0.00000      7.50495     11.60131      8.51000
  241 1     2      0.00000     15.69615      5.02488      8.51000
  242 1     2      0.00000     17.82005     11.08083      8.51000
  243 1     2      0.00000     11.51349      9.89220      8.51000
  244 1     2      0.00000     -0.68625     20.97303      8.51000
  245 1     2      0.00000     -2.81015     14.91708      8.51000
  246 1     2      0.00000      3.49641     16.10570      8.51000
  247 1     2      0.00000     -3.49641     16.10570      8.51000
  248 1     2      0.00000      0.68625     20.97303      8.51000
  249 1     2      0.00000      2.81015     14.91708      8.51000
  250 1     2      0.00000     18.50631      9.89220      8.51000
  251 1     2      0.00000     14.32365      5.02488      8.51000
  252 1     2      0.00000     12.19975     11.08083      8.51000
  253 1     2      0.00000     16.41873      6.21246      8.51000
  254 1     2      0.00000     16.43029     11.11281      8.51000
  255 1     2      0.00000     12.18068      8.67264      8.51000
  256 1     2      0.00000     -1.40883     19.78545      8.51000
  257 1     3      0.00000     -1.42039     14.88510      8.51000
  258 1     3      0.00000      2.82922     17.32527      8.51000
  259 1     2      0.00000     -2.82922     17.32527      8.51000
  260 1     2      0.00000      1.40883     19.78545      8.51000
  261 1     2      0.00000      1.42039     14.88510      8.51000
  262 1     2      0.00000     17.83912      8.67264      8.51000
  263 1     2      0.00000     13.60107      6.21246      8.51000
  264 1     2      0.00000     13.58951     11.11281      8.51000
  265 1     2      0.00000     15.72332      7.44086      8.51000
  266 1     2      0.00000     15.71416      9.89636      8.51000
  267 1     2      0.00000     13.59221      8.66068      8.51000
  268 1     2      0.00000     -0.71342     18.55705      8.51000
  269 1     2      0.00000     -0.70426     16.10155      8.51000
  270 1     2      0.00000      1.41769     17.33723      8.51000
  271 1     2      0.00000     -1.41769     17.33723      8.51000
  272 1     2      0.00000      0.71342     18.55705      8.51000
  273 1     2      0.00000      0.70426     16.10155      8.51000
  274 1     2      0.00000     16.42759      8.66068      8.51000
  275 1     2      0.00000     14.29648      7.44086      8.51000
  276 1     2      0.00000     14.30564      9.89636      8.51000
  277 1     4      0.00000     16.23786      3.75124      8.51000
  278 1     4      0.00000     18.65220     12.18678      8.51000
  279 1     4      0.00000     10.13964     10.05989      8.51000
  280 1     4      0.00000     -1.22796     22.24667      8.51000
  281 1     4      0.00000     -3.64230     13.81113      8.51000
  282 1     4      0.00000      4.87026     15.93802      8.51000
  283 1     4      0.00000     -4.87026     15.93802      8.51000
  284 1     4      0.00000      1.22796     22.24667      8.51000
  285 1     4      0.00000      3.64230     13.81113      8.51000
  286 1     4      0.00000     19.88016     10.05989      8.51000
  287 1     4      0.00000     13.78194      3.75124      8.51000
  288 1     4      0.00000     11.36760     12.18678      8.51000
  289 1     5      0.00000     -4.94801     14.47538     11.91400
  290 1     5      0.00000      4.94786     14.47512     11.91400
  291 1     5      0.00000      0.00015     23.04533     11.91400
  292 1     5      0.00000     19.95791     11.52253     11.91400
  293 1     5      0.00000     10.06204     11.52279     11.91400
  294 1     5      0.00000     15.00975      2.95258     11.91400
  295 1     1      0.00000      7.50435     10.53123     11.91400
  296 1     1      0.00000     17.14731      1.23334     11.91400
  297 1     1      0.00000     20.37804     14.23334     11.91400
  298 1     1      0.00000      7.50555     15.46668     11.91400
  299 1     1      0.00000     -2.13741     24.76457     11.91400
  300 1     1      0.00000     -5.36814     11.76457     11.91400
  301 1     1      0.00000      5.36814     11.76457     11.91400
  302 1     1      0.00000     -7.50555     15.46668     11.91400
  303 1     1      0.00000      2.13741     24.76457     11.91400
  304 1     1      0.00000      9.64176     14.23334     11.91400
  305 1     1      0.00000     22.51545     10.53123     11.91400
  306 1     1      0.00000     12.87249      1.23334     11.91400
  307 1     1      0.00000     11.63117      7.75466     11.91400
  308 1     1      0.00000     17.48848      6.19556     11.91400
  309 1     1      0.00000     15.91004     12.04769     11.91400
  310 1     1      0.00000      3.37873     18.24325     11.91400
  311 1     1      0.00000     -2.47858     19.80235     11.91400
  312 1     1      0.00000     -0.90014     13.95022     11.91400
  313 1     1      0.00000      0.90014     13.95022     11.91400
  314 1     1      0.00000     -3.37873     18.24325     11.91400
  315 1     1      0.00000      2.47858     19.80235     11.91400
  316 1     1      0.00000     14.10976     12.04769     11.91400
  317 1     1      0.00000     18.38863      7.75466     11.91400
  318 1     1      0.00000     12.53132      6.19556     11.91400
  319 1     2      0.00000     21.30295     12.29909     11.91400
  320 1     2      0.00000      8.71700     12.29935     11.91400
  321 1     2      0.00000     15.00975      1.39947     11.91400
  322 1     2      0.00000     -6.29305     13.69882     11.91400
  323 1     2      0.00000      6.29290     13.69856     11.91400
  324 1     2      0.00000      0.00015     24.59844     11.91400
  325 1     2      0.00000     13.79950      0.69882     11.91400
  326 1     2      0.00000     22.51485     11.60131     11.91400
  327 1     2      0.00000      8.71535     13.69778     11.91400
  328 1     2      0.00000      1.21040     25.29909     11.91400
  329 1     2      0.00000     -7.50495     14.39660     11.91400
  330 1     2      0.00000      6.29455     12.30013     11.91400
  331 1     2      0.00000     -6.29455     12.30013     11.91400
  332 1     2      0.00000     -1.21040     25.29909     11.91400
  333 1     2      0.00000      7.50495     14.39660     11.91400
  334 1     2      0.00000     21.30445     13.69778     11.91400
  335 1     2      0.00000     16.22030      0.69882     11.91400
  336 1     2      0.00000      7.50495     11.60131     11.91400
  337 1     2      0.00000     15.69615      5.02488     11.91400
  338 1     2      0.00000     17.82005     11.08083     11.91400
  339 1     2      0.00000     11.51349      9.89220     11.91400
  340 1     2      0.00000     -0.68625     20.97303     11.91400
  341 1     2      0.00000     -2.81015     14.91708     11.91400
  342 1     2      0.00000      3.49641     16.10570     11.91400
  343 1     2      0.00000     -3.49641     16.10570     11.91400
  344 1     2      0.00000      0.68625     20.97303     11.91400
  345 1     2      0.00000      2.81015     14.91708     11.91400
  346 1     2      0.00000     18.50631      9.89220     11.91400
  347 1     2      0.00000     14.32365      5.02488     11.91400
  348 1     2      0.00000     12.19975     11.08083     11.91400
  349 1     2      0.00000     16.41873      6.21246     11.91400
  350 1     2      0.00000     16.43029     11.11281     11.91400
  351 1     2      0.00000     12.18068      8.67264     11.91400
  352 1     2      0.00000     -1.40883     19.78545     11.91400
  353 1     3      0.00000     -1.42039     14.88510     11.91400
  354 1     3      0.00000      2.82922     17.32527     11.91400
  355 1     2      0.00000     -2.82922     17.32527     11.91400
  356 1     2      0.00000      1.40883     19.78545     11.91400
  357 1     2      0.00000      1.42039     14.88510     11.91400
  358 1     2      0.00000     17.83912      8.67264     11.91400
  359 1     2      0.00000     13.60107      6.21246     11.91400
  360 1     2      0.00000     13.58951     11.11281     11.91400
  361 1     2      0.00000     15.72332      7.44086     11.91400
  362 1     2      0.00000     15.71416      9.89636     11.91400
  363 1     2      0.00000     13.59221      8.66068     11.91400
  364 1     2      0.00000     -0.71342     18.55705     11.91400
  365 1     2      0.00000     -0.70426     16.10155     11.91400
  366 1     2      0.00000      1.41769     17.33723     11.91400
  367 1     2      0.00000     -1.41769     17.33723     11.91400
  368 1     2      0.00000      0.71342     18.55705     11.91400
  369 1     2      0.00000      0.70426     16.10155     11.91400
  370 1     2      0.00000     16.42759      8.66068     11.91400
  371 1     2      0.00000     14.29648      7.44086     11.91400
  372 1     2      0.00000     14.30564      9.89636     11.91400
  373 1     4      0.00000     16.23786      3.75124     11.91400
  374 1     4      0.00000     18.65220     12.18678     11.91400
  375 1     4      0.00000     10.13964     10.05989     11.91400
  376 1     4      0.00000     -1.22796     22.24667     11.91400
  377 1     4      0.00000     -3.64230     13.81113     11.91400
  378 1     4      0.00000      4.87026     15.93802     11.91400
  379 1     4      0.00000     -4.87026     15.93802     11.91400
  380 1     4      0.00000      1.22796     22.24667     11.91400
  381 1     4      0.00000      3.64230     13.81113     11.91400
  382 1     4      0.00000     19.88016     10.05989     11.91400
  383 1     4      0.00000     13.78194      3.75124     11.91400
  384 1     4      0.00000     11.36760     12.18678     11.91400

Bonds

    1 1     1      34    
    2 1     2      35    
    3 1     3      36    
    4 1     4      31    
    5 1     5      32    
    6 1     6      33    
    7 1     97     130   
    8 1     98     131   
    9 1     99     132   
   10 1     100    127   
   11 1     101    128   
   12 1     102    129   
   13 1     193    226   
   14 1     194    227   
   15 1     195    228   
   16 1     196    223   
   17 1     197    224   
   18 1     198    225   
   19 1     289    322   
   20 1     290    323   
   21 1     291    324   
   22 1     292    319   
   23 1     293    320   
   24 1     294    321   
   25 2     1      91    
   26 2     1      89    
   27 2     2      93    
   28 2     2      90    
   29 2     3      88    
   30 2     3      92    
   31 2     4      86    
   32 2     4      94    
   33 2     5      87    
   34 2     5      96    
   35 2     6      95    
   36 2     6      85    
   37 2     97     187   
   38 2     97     185   
   39 2     98     189   
   40 2     98     186   
   41 2     99     184   
   42 2     99     188   
   43 2     100    182   
   44 2     100    190   
   45 2     101    183   
   46 2     101    192   
   47 2     102    191   
   48 2     102    181   
   49 2     193    283   
   50 2     193    281   
   51 2     194    285   
   52 2     194    282   
   53 2     195    280   
   54 2     195    284   
   55 2     196    278   
   56 2     196    286   
   57 2     197    279   
   58 2     197    288   
   59 2     198    287   
   60 2     198    277   
   61 2     289    379   
   62 2     289    377   
   63 2     290    381   
   64 2     290    378   
   65 2     291    376   
   66 2     291    380   
   67 2     292    374   
   68 2     292    382   
   69 2     293    375   
   70 2     293    384   
   71 2     294    383   
   72 2     294    373   
   73 3     7      48    
   74 3     8      47    
   75 3     9      46    
   76 3     10     45    
   77 3     11     44    
   78 3     12     43    
   79 3     13     42    
   80 3     14     41    
   81 3     15     40    
   82 3     16     39    
   83 3     17     38    
   84 3     18     37    
   85 3     19     63    
   86 3     20     61    
   87 3     21     62    
   88 3     23     64    
   89 3     25     69    