Created by Ryther's code on 2024-12-08 14:26:31.860302

    3936 atoms
    4560 bonds
    7872 angles
    9984 dihedrals
    2112 impropers

    6 atom types
    12 bond types
    17 angle types
    6 dihedral types
    3 improper types

0.00000000 63.515 xlo xhi
0.00000000 63.515 ylo yhi
0.00000000 63.515 zlo zhi
0.0 0.0 0.0 xy xz yz 

Masses 

    1    12.0107
    2    12.0107
    3    12.0107
    4     63.546
    5    1.00794
    6    15.9994

Pair Coeffs

    1       0.10500      3.43085 # C_1 C_1
    2       0.10500      3.43085 # C_2 C_2
    3       0.10500      3.43085 # C_R C_R
    4       0.00500      3.11369 # Cu4+2 Cu4+2
    5       0.04400      2.57113 # H_ H_
    6       0.06000      3.11815 # O_2_M O_2_M

Bond Coeffs

    1     165.69608      2.00798 # Cu4+2 O_2_M bond order=0.5
    2      36.72975      3.03272 # Cu4+2 Cu4+2 bond order=0.25
    3     354.48390      1.08442 # C_2 H_ bond order=1.0
    4     357.44038      1.08142 # C_R H_ bond order=1.0
    5     389.26171      1.46100 # C_2 C_R bond order=1.0
    6     517.34607      1.32883 # C_2 C_2 bond order=2.0
    7     520.53955      1.32611 # C_2 C_R bond order=2.0
    8     462.65505      1.37926 # C_R C_R bond order=1.5
    9     391.66951      1.45800 # C_R C_R bond order=1.0
    10    714.55744      1.26901 # C_R O_2_M bond order=1.5
    11    410.80587      1.43500 # C_1 C_R bond order=1.0
    12    693.14814      1.20538 # C_1 C_1 bond order=3.0

Angle Coeffs

    1     115.06366            1            4 # O_2_M Cu4+2 O_2_M
    2      38.49981            1            4 # Cu4+2 Cu4+2 O_2_M
    3     107.27754           -1            3 # C_2 C_2 C_R
    4     107.57857           -1            3 # C_R C_2 C_R
    5     124.83728           -1            3 # C_2 C_2 C_R
    6      61.08098           -1            3 # C_2 C_2 H_
    7      61.30451           -1            3 # C_R C_2 H_
    8      61.51171           -1            3 # C_2 C_R H_
    9      57.28902           -1            3 # C_R C_R H_
    10    117.92729           -1            3 # C_2 C_R C_R
    11    111.29751           -1            3 # C_R C_R C_R
    12    102.18328           -1            3 # C_R C_R C_R
    13    137.23527           -1            3 # C_2 C_R O_2_M
    14    206.77843           -1            3 # O_2_M C_R O_2_M
    15    104.76060           -1            3 # C_1 C_R C_R
    16     65.94709            1            1 # C_1 C_1 C_R
    17     57.09052           -1            3 # C_R O_2_M Cu4+2

Dihedral Coeffs

    1       1.25000           -1            2 # X C_2 C_R X bond order=1.0
    2       4.87169           -1            2 # X C_2 C_2 X bond order=2.0
    3       4.87169           -1            2 # X C_2 C_R X bond order=2.0
    4       3.36856           -1            2 # X C_R C_R X bond order=1.5
    5       1.25000           -1            2 # X C_R C_R X bond order=1.0
    6       6.73711           -1            2 # X C_R O_2_M X bond order=1.5

Improper Coeffs

    1       2.00000      1.00000     -1.00000      0.00000            1 # C_2 X X X O_2 present=False
    2       2.00000      1.00000     -1.00000      0.00000            1 # C_R X X X O_2 present=False
    3      16.66667      1.00000     -1.00000      0.00000            1 # C_R X X X O_2 present=True

Atoms

    1 1     4      0.00000     44.45415     19.06085     31.75750
    2 1     4      0.00000     19.06085     44.45415     31.75750
    3 1     4      0.00000     19.06085     19.06085     31.75750
    4 1     4      0.00000     44.45415     44.45415     31.75750
    5 1     4      0.00000     31.75750     44.45415     19.06085
    6 1     4      0.00000     31.75750     19.06085     44.45415
    7 1     4      0.00000     31.75750     19.06085     19.06085
    8 1     4      0.00000     31.75750     44.45415     44.45415
    9 1     4      0.00000     19.06085     31.75750     44.45415
   10 1     4      0.00000     44.45415     31.75750     19.06085
   11 1     4      0.00000     19.06085     31.75750     19.06085
   12 1     4      0.00000     44.45415     31.75750     44.45415
   13 1     4      0.00000     44.45415     50.81835      0.00000
   14 1     4      0.00000     19.06085     12.69665      0.00000
   15 1     4      0.00000     19.06085     50.81835      0.00000
   16 1     4      0.00000     44.45415     12.69665      0.00000
   17 1     4      0.00000     31.75750     12.69665     50.81835
   18 1     4      0.00000     31.75750     50.81835     12.69665
   19 1     4      0.00000     31.75750     50.81835     50.81835
   20 1     4      0.00000     31.75750     12.69665     12.69665
   21 1     4      0.00000     19.06085      0.00000     12.69665
   22 1     4      0.00000     44.45415      0.00000     50.81835
   23 1     4      0.00000     19.06085      0.00000     50.81835
   24 1     4      0.00000     44.45415      0.00000     12.69665
   25 1     4      0.00000     12.69665     19.06085      0.00000
   26 1     4      0.00000     50.81835     44.45415      0.00000
   27 1     4      0.00000     50.81835     19.06085      0.00000
   28 1     4      0.00000     12.69665     44.45415      0.00000
   29 1     4      0.00000      0.00000     44.45415     50.81835
   30 1     4      0.00000      0.00000     19.06085     12.69665
   31 1     4      0.00000      0.00000     19.06085     50.81835
   32 1     4      0.00000      0.00000     44.45415     12.69665
   33 1     4      0.00000     50.81835     31.75750     12.69665
   34 1     4      0.00000     12.69665     31.75750     50.81835
   35 1     4      0.00000     50.81835     31.75750     50.81835
   36 1     4      0.00000     12.69665     31.75750     12.69665
   37 1     4      0.00000     12.69665     50.81835     31.75750
   38 1     4      0.00000     50.81835     12.69665     31.75750
   39 1     4      0.00000     50.81835     50.81835     31.75750
   40 1     4      0.00000     12.69665     12.69665     31.75750
   41 1     4      0.00000      0.00000     12.69665     19.06085
   42 1     4      0.00000      0.00000     50.81835     44.45415
   43 1     4      0.00000      0.00000     50.81835     19.06085
   44 1     4      0.00000      0.00000     12.69665     44.45415
   45 1     4      0.00000     50.81835      0.00000     44.45415
   46 1     4      0.00000     12.69665      0.00000     19.06085
   47 1     4      0.00000     50.81835      0.00000     19.06085
   48 1     4      0.00000     12.69665      0.00000     44.45415
   49 1     4      0.00000     42.61412     20.90088     31.75750
   50 1     4      0.00000     20.90088     42.61412     31.75750
   51 1     4      0.00000     20.90088     20.90088     31.75750
   52 1     4      0.00000     42.61412     42.61412     31.75750
   53 1     4      0.00000     31.75750     42.61412     20.90088
   54 1     4      0.00000     31.75750     20.90088     42.61412
   55 1     4      0.00000     31.75750     20.90088     20.90088
   56 1     4      0.00000     31.75750     42.61412     42.61412
   57 1     4      0.00000     20.90088     31.75750     42.61412
   58 1     4      0.00000     42.61412     31.75750     20.90088
   59 1     4      0.00000     20.90088     31.75750     20.90088
   60 1     4      0.00000     42.61412     31.75750     42.61412
   61 1     4      0.00000     42.61412     52.65838      0.00000
   62 1     4      0.00000     20.90088     10.85662      0.00000
   63 1     4      0.00000     20.90088     52.65838      0.00000
   64 1     4      0.00000     42.61412     10.85662      0.00000
   65 1     4      0.00000     31.75750     10.85662     52.65838
   66 1     4      0.00000     31.75750     52.65838     10.85662
   67 1     4      0.00000     31.75750     52.65838     52.65838
   68 1     4      0.00000     31.75750     10.85662     10.85662
   69 1     4      0.00000     20.90088      0.00000     10.85662
   70 1     4      0.00000     42.61412      0.00000     52.65838
   71 1     4      0.00000     20.90088      0.00000     52.65838
   72 1     4      0.00000     42.61412      0.00000     10.85662
   73 1     4      0.00000     10.85662     20.90088      0.00000
   74 1     4      0.00000     52.65838     42.61412      0.00000
   75 1     4      0.00000     52.65838     20.90088      0.00000
   76 1     4      0.00000     10.85662     42.61412      0.00000
   77 1     4      0.00000      0.00000     42.61412     52.65838
   78 1     4      0.00000      0.00000     20.90088     10.85662
   79 1     4      0.00000      0.00000     20.90088     52.65838
   80 1     4      0.00000      0.00000     42.61412     10.85662
   81 1     4      0.00000     52.65838     31.75750     10.85662
   82 1     4      0.00000     10.85662     31.75750     52.65838
   83 1     4      0.00000     52.65838     31.75750     52.65838
   84 1     4      0.00000     10.85662     31.75750     10.85662
   85 1     4      0.00000     10.85662     52.65838     31.75750
   86 1     4      0.00000     52.65838     10.85662     31.75750
   87 1     4      0.00000     52.65838     52.65838     31.75750
   88 1     4      0.00000     10.85662     10.85662     31.75750
   89 1     4      0.00000      0.00000     10.85662     20.90088
   90 1     4      0.00000      0.00000     52.65838     42.61412
   91 1     4      0.00000      0.00000     52.65838     20.90088
   92 1     4      0.00000      0.00000     10.85662     42.61412
   93 1     4      0.00000     52.65838      0.00000     42.61412
   94 1     4      0.00000     10.85662      0.00000     20.90088
   95 1     4      0.00000     52.65838      0.00000     20.90088
   96 1     4      0.00000     10.85662      0.00000     42.61412
   97 1     5      0.00000     40.05891     19.21329     28.89297
   98 1     5      0.00000     23.45609     44.30171     28.89297
   99 1     5      0.00000     23.45609     19.21329     34.62203
  100 1     5      0.00000     40.05891     44.30171     34.62203
  101 1     5      0.00000     28.89297     40.05891     19.21329
  102 1     5      0.00000     28.89297     23.45609     44.30171
  103 1     5      0.00000     34.62203     23.45609     19.21329
  104 1     5      0.00000     34.62203     40.05891     44.30171
  105 1     5      0.00000     19.21329     28.89297     40.05891
  106 1     5      0.00000     44.30171     28.89297     23.45609
  107 1     5      0.00000     19.21329     34.62203     23.45609
  108 1     5      0.00000     44.30171     34.62203     40.05891
  109 1     5      0.00000     19.21329     40.05891     34.62203
  110 1     5      0.00000     44.30171     23.45609     34.62203
  111 1     5      0.00000     19.21329     23.45609     28.89297
  112 1     5      0.00000     44.30171     40.05891     28.89297
  113 1     5      0.00000     40.05891     28.89297     44.30171
  114 1     5      0.00000     23.45609     28.89297     19.21329
  115 1     5      0.00000     23.45609     34.62203     44.30171
  116 1     5      0.00000     40.05891     34.62203     19.21329
  117 1     5      0.00000     28.89297     19.21329     23.45609
  118 1     5      0.00000     28.89297     44.30171     40.05891
  119 1     5      0.00000     34.62203     19.21329     40.05891
  120 1     5      0.00000     34.62203     44.30171     23.45609
  121 1     5      0.00000     23.45609     44.30171     34.62203
  122 1     5      0.00000     40.05891     19.21329     34.62203
  123 1     5      0.00000     40.05891     44.30171     28.89297
  124 1     5      0.00000     23.45609     19.21329     28.89297
  125 1     5      0.00000     34.62203     23.45609     44.30171
  126 1     5      0.00000     34.62203     40.05891     19.21329
  127 1     5      0.00000     28.89297     40.05891     44.30171
  128 1     5      0.00000     28.89297     23.45609     19.21329
  129 1     5      0.00000     44.30171     34.62203     23.45609
  130 1     5      0.00000     19.21329     34.62203     40.05891
  131 1     5      0.00000     44.30171     28.89297     40.05891
  132 1     5      0.00000     19.21329     28.89297     23.45609
  133 1     5      0.00000     44.30171     23.45609     28.89297
  134 1     5      0.00000     19.21329     40.05891     28.89297
  135 1     5      0.00000     44.30171     40.05891     34.62203
  136 1     5      0.00000     19.21329     23.45609     34.62203
  137 1     5      0.00000     23.45609     34.62203     19.21329
  138 1     5      0.00000     40.05891     34.62203     44.30171
  139 1     5      0.00000     40.05891     28.89297     19.21329
  140 1     5      0.00000     23.45609     28.89297     44.30171
  141 1     5      0.00000     34.62203     44.30171     40.05891
  142 1     5      0.00000     34.62203     19.21329     23.45609
  143 1     5      0.00000     28.89297     44.30171     23.45609
  144 1     5      0.00000     28.89297     19.21329     40.05891
  145 1     5      0.00000     40.05891     50.97079     60.65047
  146 1     5      0.00000     23.45609     12.54421     60.65047
  147 1     5      0.00000     23.45609     50.97079      2.86453
  148 1     5      0.00000     40.05891     12.54421      2.86453
  149 1     5      0.00000     28.89297      8.30141     50.97079
  150 1     5      0.00000     28.89297     55.21359     12.54421
  151 1     5      0.00000     34.62203     55.21359     50.97079
  152 1     5      0.00000     34.62203      8.30141     12.54421
  153 1     5      0.00000     19.21329     60.65047      8.30141
  154 1     5      0.00000     44.30171     60.65047     55.21359
  155 1     5      0.00000     19.21329      2.86453     55.21359
  156 1     5      0.00000     44.30171      2.86453      8.30141
  157 1     5      0.00000     19.21329      8.30141      2.86453
  158 1     5      0.00000     44.30171     55.21359      2.86453
  159 1     5      0.00000     19.21329     55.21359     60.65047
  160 1     5      0.00000     44.30171      8.30141     60.65047
  161 1     5      0.00000     40.05891     60.65047     12.54421
  162 1     5      0.00000     23.45609     60.65047     50.97079
  163 1     5      0.00000     23.45609      2.86453     12.54421
  164 1     5      0.00000     40.05891      2.86453     50.97079
  165 1     5      0.00000     28.89297     50.97079     55.21359
  166 1     5      0.00000     28.89297     12.54421      8.30141
  167 1     5      0.00000     34.62203     50.97079      8.30141
  168 1     5      0.00000     34.62203     12.54421     55.21359
  169 1     5      0.00000     23.45609     12.54421      2.86453
  170 1     5      0.00000     40.05891     50.97079      2.86453
  171 1     5      0.00000     40.05891     12.54421     60.65047
  172 1     5      0.00000     23.45609     50.97079     60.65047
  173 1     5      0.00000     34.62203     55.21359     12.54421
  174 1     5      0.00000     34.62203      8.30141     50.97079
  175 1     5      0.00000     28.89297      8.30141     12.54421
  176 1     5      0.00000     28.89297     55.21359     50.97079
  177 1     5      0.00000     44.30171      2.86453     55.21359
  178 1     5      0.00000     19.21329      2.86453      8.30141
  179 1     5      0.00000     44.30171     60.65047      8.30141
  180 1     5      0.00000     19.21329     60.65047     55.21359
  181 1     5      0.00000     44.30171     55.21359     60.65047
  182 1     5      0.00000     19.21329      8.30141     60.65047
  183 1     5      0.00000     44.30171      8.30141      2.86453
  184 1     5      0.00000     19.21329     55.21359      2.86453
  185 1     5      0.00000     23.45609      2.86453     50.97079
  186 1     5      0.00000     40.05891      2.86453     12.54421
  187 1     5      0.00000     40.05891     60.65047     50.97079
  188 1     5      0.00000     23.45609     60.65047     12.54421
  189 1     5      0.00000     34.62203     12.54421      8.30141
  190 1     5      0.00000     34.62203     50.97079     55.21359
  191 1     5      0.00000     28.89297     12.54421     55.21359
  192 1     5      0.00000     28.89297     50.97079      8.30141
  193 1     5      0.00000      8.30141     19.21329     60.65047
  194 1     5      0.00000     55.21359     44.30171     60.65047
  195 1     5      0.00000     55.21359     19.21329      2.86453
  196 1     5      0.00000      8.30141     44.30171      2.86453
  197 1     5      0.00000     60.65047     40.05891     50.97079
  198 1     5      0.00000     60.65047     23.45609     12.54421
  199 1     5      0.00000      2.86453     23.45609     50.97079
  200 1     5      0.00000      2.86453     40.05891     12.54421
  201 1     5      0.00000     50.97079     28.89297      8.30141
  202 1     5      0.00000     12.54421     28.89297     55.21359
  203 1     5      0.00000     50.97079     34.62203     55.21359
  204 1     5      0.00000     12.54421     34.62203      8.30141
  205 1     5      0.00000     50.97079     40.05891      2.86453
  206 1     5      0.00000     12.54421     23.45609      2.86453
  207 1     5      0.00000     50.97079     23.45609     60.65047
  208 1     5      0.00000     12.54421     40.05891     60.65047
  209 1     5      0.00000      8.30141     28.89297     12.54421
  210 1     5      0.00000     55.21359     28.89297     50.97079
  211 1     5      0.00000     55.21359     34.62203     12.54421
  212 1     5      0.00000      8.30141     34.62203     50.97079
  213 1     5      0.00000     60.65047     19.21329     55.21359
  214 1     5      0.00000     60.65047     44.30171      8.30141
  215 1     5      0.00000      2.86453     19.21329      8.30141
  216 1     5      0.00000      2.86453     44.30171     55.21359
  217 1     5      0.00000     55.21359     44.30171      2.86453
  218 1     5      0.00000      8.30141     19.21329      2.86453
  219 1     5      0.00000      8.30141     44.30171     60.65047
  220 1     5      0.00000     55.21359     19.21329     60.65047
  221 1     5      0.00000      2.86453     23.45609     12.54421
  222 1     5      0.00000      2.86453     40.05891     50.97079
  223 1     5      0.00000     60.65047     40.05891     12.54421
  224 1     5      0.00000     60.65047     23.45609     50.97079
  225 1     5      0.00000     12.54421     34.62203     55.21359
  226 1     5      0.00000     50.97079     34.62203      8.30141
  227 1     5      0.00000     12.54421     28.89297      8.30141
  228 1     5      0.00000     50.97079     28.89297     55.21359
  229 1     5      0.00000     12.54421     23.45609     60.65047
  230 1     5      0.00000     50.97079     40.05891     60.65047
  231 1     5      0.00000     12.54421     40.05891      2.86453
  232 1     5      0.00000     50.97079     23.45609      2.86453
  233 1     5      0.00000     55.21359     34.62203     50.97079
  234 1     5      0.00000      8.30141     34.62203     12.54421
  235 1     5      0.00000      8.30141     28.89297     50.97079
  236 1     5      0.00000     55.21359     28.89297     12.54421
  237 1     5      0.00000      2.86453     44.30171      8.30141
  238 1     5      0.00000      2.86453     19.21329     55.21359
  239 1     5      0.00000     60.65047     44.30171     55.21359
  240 1     5      0.00000     60.65047     19.21329      8.30141
  241 1     5      0.00000      8.30141     50.97079     28.89297
  242 1     5      0.00000     55.21359     12.54421     28.89297
  243 1     5      0.00000     55.21359     50.97079     34.62203
  244 1     5      0.00000      8.30141     12.54421     34.62203
  245 1     5      0.00000     60.65047      8.30141     19.21329
  246 1     5      0.00000     60.65047     55.21359     44.30171
  247 1     5      0.00000      2.86453     55.21359     19.21329
  248 1     5      0.00000      2.86453      8.30141     44.30171
  249 1     5      0.00000     50.97079     60.65047     40.05891
  250 1     5      0.00000     12.54421     60.65047     23.45609
  251 1     5      0.00000     50.97079      2.86453     23.45609
  252 1     5      0.00000     12.54421      2.86453     40.05891
  253 1     5      0.00000     50.97079      8.30141     34.62203
  254 1     5      0.00000     12.54421     55.21359     34.62203
  255 1     5      0.00000     50.97079     55.21359     28.89297
  256 1     5      0.00000     12.54421      8.30141     28.89297
  257 1     5      0.00000      8.30141     60.65047     44.30171
  258 1     5      0.00000     55.21359     60.65047     19.21329
  259 1     5      0.00000     55.21359      2.86453     44.30171
  260 1     5      0.00000      8.30141      2.86453     19.21329
  261 1     5      0.00000     60.65047     50.97079     23.45609
  262 1     5      0.00000     60.65047     12.54421     40.05891
  263 1     5      0.00000      2.86453     50.97079     40.05891
  264 1     5      0.00000      2.86453     12.54421     23.45609
  265 1     5      0.00000     55.21359     12.54421     34.62203
  266 1     5      0.00000      8.30141     50.97079     34.62203
  267 1     5      0.00000      8.30141     12.54421     28.89297
  268 1     5      0.00000     55.21359     50.97079     28.89297
  269 1     5      0.00000      2.86453     55.21359     44.30171
  270 1     5      0.00000      2.86453      8.30141     19.21329
  271 1     5      0.00000     60.65047      8.30141     44.30171
  272 1     5      0.00000     60.65047     55.21359     19.21329
  273 1     5      0.00000     12.54421      2.86453     23.45609
  274 1     5      0.00000     50.97079      2.86453     40.05891
  275 1     5      0.00000     12.54421     60.65047     40.05891
  276 1     5      0.00000     50.97079     60.65047     23.45609
  277 1     5      0.00000     12.54421     55.21359     28.89297
  278 1     5      0.00000     50.97079      8.30141     28.89297
  279 1     5      0.00000     12.54421      8.30141     34.62203
  280 1     5      0.00000     50.97079     55.21359     34.62203
  281 1     5      0.00000     55.21359      2.86453     19.21329
  282 1     5      0.00000      8.30141      2.86453     44.30171
  283 1     5      0.00000      8.30141     60.65047     19.21329
  284 1     5      0.00000     55.21359     60.65047     44.30171
  285 1     5      0.00000      2.86453     12.54421     40.05891
  286 1     5      0.00000      2.86453     50.97079     23.45609
  287 1     5      0.00000     60.65047     12.54421     23.45609
  288 1     5      0.00000     60.65047     50.97079     40.05891
  289 1     5      0.00000     42.89168     16.54566     28.67067
  290 1     5      0.00000     20.62332     46.96934     28.67067
  291 1     5      0.00000     20.62332     16.54566     34.84433
  292 1     5      0.00000     42.89168     46.96934     34.84433
  293 1     5      0.00000     28.67067     42.89168     16.54566
  294 1     5      0.00000     28.67067     20.62332     46.96934
  295 1     5      0.00000     34.84433     20.62332     16.54566
  296 1     5      0.00000     34.84433     42.89168     46.96934
  297 1     5      0.00000     16.54566     28.67067     42.89168
  298 1     5      0.00000     46.96934     28.67067     20.62332
  299 1     5      0.00000     16.54566     34.84433     20.62332
  300 1     5      0.00000     46.96934     34.84433     42.89168
  301 1     5      0.00000     16.54566     42.89168     34.84433
  302 1     5      0.00000     46.96934     20.62332     34.84433
  303 1     5      0.00000     16.54566     20.62332     28.67067
  304 1     5      0.00000     46.96934     42.89168     28.67067
  305 1     5      0.00000     42.89168     28.67067     46.96934
  306 1     5      0.00000     20.62332     28.67067     16.54566
  307 1     5      0.00000     20.62332     34.84433     46.96934
  308 1     5      0.00000     42.89168     34.84433     16.54566
  309 1     5      0.00000     28.67067     16.54566     20.62332
  310 1     5      0.00000     28.67067     46.96934     42.89168
  311 1     5      0.00000     34.84433     16.54566     42.89168
  312 1     5      0.00000     34.84433     46.96934     20.62332
  313 1     5      0.00000     20.62332     46.96934     34.84433
  314 1     5      0.00000     42.89168     16.54566     34.84433
  315 1     5      0.00000     42.89168     46.96934     28.67067
  316 1     5      0.00000     20.62332     16.54566     28.67067
  317 1     5      0.00000     34.84433     20.62332     46.96934
  318 1     5      0.00000     34.84433     42.89168     16.54566
  319 1     5      0.00000     28.67067     42.89168     46.96934
  320 1     5      0.00000     28.67067     20.62332     16.54566
  321 1     5      0.00000     46.96934     34.84433     20.62332
  322 1     5      0.00000     16.54566     34.84433     42.89168
  323 1     5      0.00000     46.96934     28.67067     42.89168
  324 1     5      0.00000     16.54566     28.67067     20.62332
  325 1     5      0.00000     46.96934     20.62332     28.67067
  326 1     5      0.00000     16.54566     42.89168     28.67067
  327 1     5      0.00000     46.96934     42.89168     34.84433
  328 1     5      0.00000     16.54566     20.62332     34.84433
  329 1     5      0.00000     20.62332     34.84433     16.54566
  330 1     5      0.00000     42.89168     34.84433     46.96934
  331 1     5      0.00000     42.89168     28.67067     16.54566
  332 1     5      0.00000     20.62332     28.67067     46.96934
  333 1     5      0.00000     34.84433     46.96934     42.89168
  334 1     5      0.00000     34.84433     16.54566     20.62332
  335 1     5      0.00000     28.67067     46.96934     20.62332
  336 1     5      0.00000     28.67067     16.54566     42.89168
  337 1     5      0.00000     42.89168     48.30316     60.42817
  338 1     5      0.00000     20.62332     15.21184     60.42817
  339 1     5      0.00000     20.62332     48.30316      3.08683
  340 1     5      0.00000     42.89168     15.21184      3.08683
  341 1     5      0.00000     28.67067     11.13418     48.30316
  342 1     5      0.00000     28.67067     52.38082     15.21184
  343 1     5      0.00000     34.84433     52.38082     48.30316
  344 1     5      0.00000     34.84433     11.13418     15.21184
  345 1     5      0.00000     16.54566     60.42817     11.13418
  346 1     5      0.00000     46.96934     60.42817     52.38082
  347 1     5      0.00000     16.54566      3.08683     52.38082
  348 1     5      0.00000     46.96934      3.08683     11.13418
  349 1     5      0.00000     16.54566     11.13418      3.08683
  350 1     5      0.00000     46.96934     52.38082      3.08683
  351 1     5      0.00000     16.54566     52.38082     60.42817
  352 1     5      0.00000     46.96934     11.13418     60.42817
  353 1     5      0.00000     42.89168     60.42817     15.21184
  354 1     5      0.00000     20.62332     60.42817     48.30316
  355 1     5      0.00000     20.62332      3.08683     15.21184
  356 1     5      0.00000     42.89168      3.08683     48.30316
  357 1     5      0.00000     28.67067     48.30316     52.38082
  358 1     5      0.00000     28.67067     15.21184     11.13418
  359 1     5      0.00000     34.84433     48.30316     11.13418
  360 1     5      0.00000     34.84433     15.21184     52.38082
  361 1     5      0.00000     20.62332     15.21184      3.08683
  362 1     5      0.00000     42.89168     48.30316      3.08683
  363 1     5      0.00000     42.89168     15.21184     60.42817
  364 1     5      0.00000     20.62332     48.30316     60.42817
  365 1     5      0.00000     34.84433     52.38082     15.21184
  366 1     5      0.00000     34.84433     11.13418     48.30316
  367 1     5      0.00000     28.67067     11.13418     15.21184
  368 1     5      0.00000     28.67067     52.38082     48.30316
  369 1     5      0.00000     46.96934      3.08683     52.38082
  370 1     5      0.00000     16.54566      3.08683     11.13418
  371 1     5      0.00000     46.96934     60.42817     11.13418
  372 1     5      0.00000     16.54566     60.42817     52.38082
  373 1     5      0.00000     46.96934     52.38082     60.42817
  374 1     5      0.00000     16.54566     11.13418     60.42817
  375 1     5      0.00000     46.96934     11.13418      3.08683
  376 1     5      0.00000     16.54566     52.38082      3.08683
  377 1     5      0.00000     20.62332      3.08683     48.30316
  378 1     5      0.00000     42.89168      3.08683     15.21184
  379 1     5      0.00000     42.89168     60.42817     48.30316
  380 1     5      0.00000     20.62332     60.42817     15.21184
  381 1     5      0.00000     34.84433     15.21184     11.13418
  382 1     5      0.00000     34.84433     48.30316     52.38082
  383 1     5      0.00000     28.67067     15.21184     52.38082
  384 1     5      0.00000     28.67067     48.30316     11.13418
  385 1     5      0.00000     11.13418     16.54566     60.42817
  386 1     5      0.00000     52.38082     46.96934     60.42817
  387 1     5      0.00000     52.38082     16.54566      3.08683
  388 1     5      0.00000     11.13418     46.96934      3.08683
  389 1     5      0.00000     60.42817     42.89168     48.30316
  390 1     5      0.00000     60.42817     20.62332     15.21184
  391 1     5      0.00000      3.08683     20.62332     48.30316
  392 1     5      0.00000      3.08683     42.89168     15.21184
  393 1     5      0.00000     48.30316     28.67067     11.13418
  394 1     5      0.00000     15.21184     28.67067     52.38082
  395 1     5      0.00000     48.30316     34.84433     52.38082
  396 1     5      0.00000     15.21184     34.84433     11.13418
  397 1     5      0.00000     48.30316     42.89168      3.08683
  398 1     5      0.00000     15.21184     20.62332      3.08683
  399 1     5      0.00000     48.30316     20.62332     60.42817
  400 1     5      0.00000     15.21184     42.89168     60.42817
  401 1     5      0.00000     11.13418     28.67067     15.21184
  402 1     5      0.00000     52.38082     28.67067     48.30316
  403 1     5      0.00000     52.38082     34.84433     15.21184
  404 1     5      0.00000     11.13418     34.84433     48.30316