Created by Ryther's code on 2024-12-08 14:19:40.868769

    1488 atoms
    1632 bonds
    2976 angles
    3360 dihedrals
    432 impropers

    7 atom types
    12 bond types
    26 angle types
    7 dihedral types
    2 improper types

0.00000000 28.4319 xlo xhi
0.00000000 28.4319 ylo yhi
0.00000000 28.4319 zlo zhi
0.0 0.0 0.0 xy xz yz 

Masses 

    1    12.0107
    2    12.0107
    3    1.00794
    4    14.0067
    5    14.0067
    6    15.9994
    7      65.38

Pair Coeffs

    1       0.10500      3.43085 # C_3 C_3
    2       0.10500      3.43085 # C_R C_R
    3       0.04400      2.57113 # H_ H_
    4       0.06900      3.26069 # N_3 N_3
    5       0.06900      3.26069 # N_R N_R
    6       0.06000      3.11815 # O_3 O_3
    7       0.12400      2.46155 # Zn3f2 Zn3f2

Bond Coeffs

    1     117.87756      2.10864 # N_3 Zn3f2 bond order=0.5
    2     118.05951      2.10756 # N_R Zn3f2 bond order=0.5
    3     559.94651      0.99025 # H_ O_3 bond order=1.0
    4     357.44038      1.08142 # C_R H_ bond order=1.0
    5     331.06939      1.10940 # C_3 H_ bond order=1.0
    6     560.26893      1.42319 # C_R N_3 bond order=1.0
    7     663.66675      1.34507 # C_R N_R bond order=1.5
    8     369.94394      1.48600 # C_3 C_R bond order=1.0
    9     462.65505      1.37926 # C_R C_R bond order=1.5
    10    750.15238      1.29126 # C_R N_3 bond order=2.0
    11    539.20166      1.39385 # C_3 O_3 bond order=1.0
    12    751.73006      1.29035 # C_R N_R bond order=2.0

Angle Coeffs

    1  fourier                140.45081      0.34375      0.37500      0.28125 # N_3 Zn3f2 N_R
    2  fourier                140.34257      0.34375      0.37500      0.28125 # N_3 Zn3f2 N_3
    3  fourier                140.55920      0.34375      0.37500      0.28125 # N_R Zn3f2 N_R
    4  cosine/periodic         71.90654           -1            3 # H_ C_R N_3
    5  cosine/periodic         79.78069           -1            3 # H_ C_R N_R
    6  cosine/periodic        194.72778           -1            3 # N_3 C_R N_R
    7  cosine/periodic         99.13715           -1            3 # C_3 C_R C_R
    8  cosine/periodic        144.17226           -1            3 # C_3 C_R N_3
    9  cosine/periodic        162.97023           -1            3 # C_R C_R N_3
    10 fourier                 75.49653      0.34375      0.37500      0.28125 # H_ C_3 H_
    11 fourier                121.77380      0.34375      0.37500      0.28125 # C_R C_3 H_
    12 fourier                165.75867      0.34375      0.37500      0.28125 # H_ C_3 O_3
    13 fourier                298.92298      0.34375      0.37500      0.28125 # C_R C_3 O_3
    14 cosine/periodic        163.13092           -1            3 # C_R C_R N_R
    15 cosine/periodic        144.30394           -1            3 # C_3 C_R N_R
    16 cosine/periodic        212.40917           -1            3 # N_R C_R N_R
    17 cosine/periodic        136.53799           -1            3 # C_3 C_R N_R
    18 cosine/periodic        153.68727           -1            3 # C_R C_R N_R
    19 fourier                 91.68749      0.31751      0.31322      0.27250 # C_R N_3 Zn3f2
    20 fourier                 98.64251      0.31751      0.31322      0.27250 # C_R N_3 Zn3f2
    21 fourier                317.26790      0.31751      0.31322      0.27250 # C_R N_3 C_R
    22 cosine/periodic         36.45900           -1            3 # C_R N_R Zn3f2
    23 cosine/periodic         37.80147           -1            3 # C_R N_R Zn3f2
    24 cosine/periodic        127.56007           -1            3 # C_R N_R C_R
    25 cosine/periodic        120.00052           -1            3 # C_R N_R C_R
    26 fourier                174.16240      0.30023      0.26733      0.26675 # C_3 O_3 H_

Dihedral Coeffs

    1       0.25000           -1            6 # X C_R N_3 X bond order=1.0
    2       3.36856           -1            2 # X C_R N_R X bond order=1.5
    3       0.16667           -1            6 # X C_3 C_R X bond order=1.0
    4       3.36856           -1            2 # X C_R C_R X bond order=1.5
    5       0.25000           -1            6 # X C_R N_3 X bond order=2.0
    6       0.03255            1            3 # X C_3 O_3 X bond order=1.0
    7       4.87169           -1            2 # X C_R N_R X bond order=2.0

Improper Coeffs

    1       2.00000      1.00000     -1.00000      0.00000            1 # C_R X X X O_2 present=False
    2       2.00000      1.00000     -1.00000      0.00000            1 # N_R X X X O_2 present=False

Atoms

    1 1     7      0.00000      7.10797     17.08757     25.56028
    2 1     7      0.00000     21.32392     11.34433     25.56028
    3 1     7      0.00000     21.32392     17.08757      2.87162
    4 1     7      0.00000      7.10797     11.34433      2.87162
    5 1     7      0.00000     25.56028      7.10797     17.08757
    6 1     7      0.00000     25.56028     21.32392     11.34433
    7 1     7      0.00000      2.87162     21.32392     17.08757
    8 1     7      0.00000      2.87162      7.10797     11.34433
    9 1     7      0.00000     17.08757     25.56028      7.10797
   10 1     7      0.00000     11.34433     25.56028     21.32392
   11 1     7      0.00000     17.08757      2.87162     21.32392
   12 1     7      0.00000     11.34433      2.87162      7.10797
   13 1     7      0.00000     17.08757      7.10797      2.87162
   14 1     7      0.00000     11.34433     21.32392      2.87162
   15 1     7      0.00000     17.08757     21.32392     25.56028
   16 1     7      0.00000     11.34433      7.10797     25.56028
   17 1     7      0.00000      7.10797     25.56028     11.34433
   18 1     7      0.00000     21.32392     25.56028     17.08757
   19 1     7      0.00000     21.32392      2.87162     11.34433
   20 1     7      0.00000      7.10797      2.87162     17.08757
   21 1     7      0.00000     25.56028     17.08757     21.32392
   22 1     7      0.00000     25.56028     11.34433      7.10797
   23 1     7      0.00000      2.87162     17.08757      7.10797
   24 1     7      0.00000      2.87162     11.34433     21.32392
   25 1     7      0.00000      7.10797     11.23828     25.45423
   26 1     7      0.00000     21.32392     17.19362     25.45423
   27 1     7      0.00000     21.32392     11.23828      2.97767
   28 1     7      0.00000      7.10797     17.19362      2.97767
   29 1     7      0.00000     25.45423      7.10797     11.23828
   30 1     7      0.00000     25.45423     21.32392     17.19362
   31 1     7      0.00000      2.97767     21.32392     11.23828
   32 1     7      0.00000      2.97767      7.10797     17.19362
   33 1     7      0.00000     11.23828     25.45423      7.10797
   34 1     7      0.00000     17.19362     25.45423     21.32392
   35 1     7      0.00000     11.23828      2.97767     21.32392
   36 1     7      0.00000     17.19362      2.97767      7.10797
   37 1     7      0.00000     11.23828      7.10797      2.97767
   38 1     7      0.00000     17.19362     21.32392      2.97767
   39 1     7      0.00000     11.23828     21.32392     25.45423
   40 1     7      0.00000     17.19362      7.10797     25.45423
   41 1     7      0.00000      7.10797     25.45423     17.19362
   42 1     7      0.00000     21.32392     25.45423     11.23828
   43 1     7      0.00000     21.32392      2.97767     17.19362
   44 1     7      0.00000      7.10797      2.97767     11.23828
   45 1     7      0.00000     25.45423     11.23828     21.32392
   46 1     7      0.00000     25.45423     17.19362      7.10797
   47 1     7      0.00000      2.97767     11.23828      7.10797
   48 1     7      0.00000      2.97767     17.19362     21.32392
   49 1     3      0.00000     11.87316     16.22097     26.33249
   50 1     3      0.00000     16.55874     12.21093     26.33249
   51 1     3      0.00000     16.55874     16.22097      2.09941
   52 1     3      0.00000     11.87316     12.21093      2.09941
   53 1     3      0.00000     26.33249     11.87316     16.22097
   54 1     3      0.00000     26.33249     16.55874     12.21093
   55 1     3      0.00000      2.09941     16.55874     16.22097
   56 1     3      0.00000      2.09941     11.87316     12.21093
   57 1     3      0.00000     16.22097     26.33249     11.87316
   58 1     3      0.00000     12.21093     26.33249     16.55874
   59 1     3      0.00000     16.22097      2.09941     16.55874
   60 1     3      0.00000     12.21093      2.09941     11.87316
   61 1     3      0.00000     16.22097     11.87316      2.09941
   62 1     3      0.00000     12.21093     16.55874      2.09941
   63 1     3      0.00000     16.22097     16.55874     26.33249
   64 1     3      0.00000     12.21093     11.87316     26.33249
   65 1     3      0.00000     11.87316     26.33249     12.21093
   66 1     3      0.00000     16.55874     26.33249     16.22097
   67 1     3      0.00000     16.55874      2.09941     12.21093
   68 1     3      0.00000     11.87316      2.09941     16.22097
   69 1     3      0.00000     26.33249     16.22097     16.55874
   70 1     3      0.00000     26.33249     12.21093     11.87316
   71 1     3      0.00000      2.09941     16.22097     11.87316
   72 1     3      0.00000      2.09941     12.21093     16.55874
   73 1     3      0.00000     26.08911      2.00502     12.11654
   74 1     3      0.00000      2.34279     26.42688     12.11654
   75 1     3      0.00000      2.34279      2.00502     16.31536
   76 1     3      0.00000     26.08911     26.42688     16.31536
   77 1     3      0.00000     12.11654     26.08911      2.00502
   78 1     3      0.00000     12.11654      2.34279     26.42688
   79 1     3      0.00000     16.31536      2.34279      2.00502
   80 1     3      0.00000     16.31536     26.08911     26.42688
   81 1     3      0.00000      2.00502     12.11654     26.08911
   82 1     3      0.00000     26.42688     12.11654      2.34279
   83 1     3      0.00000      2.00502     16.31536      2.34279
   84 1     3      0.00000     26.42688     16.31536     26.08911
   85 1     3      0.00000      2.00502     26.08911     16.31536
   86 1     3      0.00000     26.42688      2.34279     16.31536
   87 1     3      0.00000      2.00502      2.34279     12.11654
   88 1     3      0.00000     26.42688     26.08911     12.11654
   89 1     3      0.00000     26.08911     12.11654     26.42688
   90 1     3      0.00000      2.34279     12.11654      2.00502
   91 1     3      0.00000      2.34279     16.31536     26.42688
   92 1     3      0.00000     26.08911     16.31536      2.00502
   93 1     3      0.00000     12.11654      2.00502      2.34279
   94 1     3      0.00000     12.11654     26.42688     26.08911
   95 1     3      0.00000     16.31536      2.00502     26.08911
   96 1     3      0.00000     16.31536     26.42688      2.34279
   97 1     3      0.00000      1.70307     20.46727     24.00363
   98 1     3      0.00000     26.72883      7.96463     24.00363
   99 1     3      0.00000     26.72883     20.46727      4.42827
  100 1     3      0.00000      1.70307      7.96463      4.42827
  101 1     3      0.00000     24.00363      1.70307     20.46727
  102 1     3      0.00000     24.00363     26.72883      7.96463
  103 1     3      0.00000      4.42827     26.72883     20.46727
  104 1     3      0.00000      4.42827      1.70307      7.96463
  105 1     3      0.00000     20.46727     24.00363      1.70307
  106 1     3      0.00000      7.96463     24.00363     26.72883
  107 1     3      0.00000     20.46727      4.42827     26.72883
  108 1     3      0.00000      7.96463      4.42827      1.70307
  109 1     3      0.00000     20.46727      1.70307      4.42827
  110 1     3      0.00000      7.96463     26.72883      4.42827
  111 1     3      0.00000     20.46727     26.72883     24.00363
  112 1     3      0.00000      7.96463      1.70307     24.00363
  113 1     3      0.00000      1.70307     24.00363      7.96463
  114 1     3      0.00000     26.72883     24.00363     20.46727
  115 1     3      0.00000     26.72883      4.42827      7.96463
  116 1     3      0.00000      1.70307      4.42827     20.46727
  117 1     3      0.00000     24.00363     20.46727     26.72883
  118 1     3      0.00000     24.00363      7.96463      1.70307
  119 1     3      0.00000      4.42827     20.46727      1.70307
  120 1     3      0.00000      4.42827      7.96463     26.72883
  121 1     3      0.00000     15.91902      6.25132      9.78768
  122 1     3      0.00000     12.51288     22.18058      9.78768
  123 1     3      0.00000     12.51288      6.25132     18.64422
  124 1     3      0.00000     15.91902     22.18058     18.64422
  125 1     3      0.00000      9.78768     15.91902      6.25132
  126 1     3      0.00000      9.78768     12.51288     22.18058
  127 1     3      0.00000     18.64422     12.51288      6.25132
  128 1     3      0.00000     18.64422     15.91902     22.18058
  129 1     3      0.00000      6.25132      9.78768     15.91902
  130 1     3      0.00000     22.18058      9.78768     12.51288
  131 1     3      0.00000      6.25132     18.64422     12.51288
  132 1     3      0.00000     22.18058     18.64422     15.91902
  133 1     3      0.00000      6.25132     15.91902     18.64422
  134 1     3      0.00000     22.18058     12.51288     18.64422
  135 1     3      0.00000      6.25132     12.51288      9.78768
  136 1     3      0.00000     22.18058     15.91902      9.78768
  137 1     3      0.00000     15.91902      9.78768     22.18058
  138 1     3      0.00000     12.51288      9.78768      6.25132
  139 1     3      0.00000     12.51288     18.64422     22.18058
  140 1     3      0.00000     15.91902     18.64422      6.25132
  141 1     3      0.00000      9.78768      6.25132     12.51288
  142 1     3      0.00000      9.78768     22.18058     15.91902
  143 1     3      0.00000     18.64422      6.25132     15.91902
  144 1     3      0.00000     18.64422     22.18058     12.51288
  145 1     3      0.00000      6.07732     14.40445     24.43949
  146 1     3      0.00000     22.35458     14.02745     24.43949
  147 1     3      0.00000     22.35458     14.40445      3.99241
  148 1     3      0.00000      6.07732     14.02745      3.99241
  149 1     3      0.00000     24.43949      6.07732     14.40445
  150 1     3      0.00000     24.43949     22.35458     14.02745
  151 1     3      0.00000      3.99241     22.35458     14.40445
  152 1     3      0.00000      3.99241      6.07732     14.02745
  153 1     3      0.00000     14.40445     24.43949      6.07732
  154 1     3      0.00000     14.02745     24.43949     22.35458
  155 1     3      0.00000     14.40445      3.99241     22.35458
  156 1     3      0.00000     14.02745      3.99241      6.07732
  157 1     3      0.00000     14.40445      6.07732      3.99241
  158 1     3      0.00000     14.02745     22.35458      3.99241
  159 1     3      0.00000     14.40445     22.35458     24.43949
  160 1     3      0.00000     14.02745      6.07732     24.43949
  161 1     3      0.00000      6.07732     24.43949     14.02745
  162 1     3      0.00000     22.35458     24.43949     14.40445
  163 1     3      0.00000     22.35458      3.99241     14.02745
  164 1     3      0.00000      6.07732      3.99241     14.40445
  165 1     3      0.00000     24.43949     14.40445     22.35458
  166 1     3      0.00000     24.43949     14.02745      6.07732
  167 1     3      0.00000      3.99241     14.40445      6.07732
  168 1     3      0.00000      3.99241     14.02745     22.35458
  169 1     3      0.00000     20.29327      0.18850     10.22354
  170 1     3      0.00000      8.13863     28.24340     10.22354
  171 1     3      0.00000      8.13863      0.18850     18.20836
  172 1     3      0.00000     20.29327     28.24340     18.20836
  173 1     3      0.00000     10.22354     20.29327      0.18850
  174 1     3      0.00000     10.22354      8.13863     28.24340
  175 1     3      0.00000     18.20836      8.13863      0.18850
  176 1     3      0.00000     18.20836     20.29327     28.24340
  177 1     3      0.00000      0.18850     10.22354     20.29327
  178 1     3      0.00000     28.24340     10.22354      8.13863
  179 1     3      0.00000      0.18850     18.20836      8.13863
  180 1     3      0.00000     28.24340     18.20836     20.29327
  181 1     3      0.00000      0.18850     20.29327     18.20836
  182 1     3      0.00000     28.24340      8.13863     18.20836
  183 1     3      0.00000      0.18850      8.13863     10.22354
  184 1     3      0.00000     28.24340     20.29327     10.22354
  185 1     3      0.00000     20.29327     10.22354     28.24340
  186 1     3      0.00000      8.13863     10.22354      0.18850
  187 1     3      0.00000      8.13863     18.20836     28.24340
  188 1     3      0.00000     20.29327     18.20836      0.18850
  189 1     3      0.00000     10.22354      0.18850      8.13863
  190 1     3      0.00000     10.22354     28.24340     20.29327
  191 1     3      0.00000     18.20836      0.18850     20.29327
  192 1     3      0.00000     18.20836     28.24340      8.13863
  193 1     3      0.00000      9.56819     16.72734     26.62676
  194 1     3      0.00000     18.86371     11.70456     26.62676
  195 1     3      0.00000     18.86371     16.72734      1.80514
  196 1     3      0.00000      9.56819     11.70456      1.80514
  197 1     3      0.00000     26.62676      9.56819     16.72734
  198 1     3      0.00000     26.62676     18.86371     11.70456
  199 1     3      0.00000      1.80514     18.86371     16.72734
  200 1     3      0.00000      1.80514      9.56819     11.70456
  201 1     3      0.00000     16.72734     26.62676      9.56819
  202 1     3      0.00000     11.70456     26.62676     18.86371
  203 1     3      0.00000     16.72734      1.80514     18.86371
  204 1     3      0.00000     11.70456      1.80514      9.56819
  205 1     3      0.00000     16.72734      9.56819      1.80514
  206 1     3      0.00000     11.70456     18.86371      1.80514
  207 1     3      0.00000     16.72734     18.86371     26.62676
  208 1     3      0.00000     11.70456      9.56819     26.62676
  209 1     3      0.00000      9.56819     26.62676     11.70456
  210 1     3      0.00000     18.86371     26.62676     16.72734
  211 1     3      0.00000     18.86371      1.80514     11.70456
  212 1     3      0.00000      9.56819      1.80514     16.72734
  213 1     3      0.00000     26.62676     16.72734     18.86371
  214 1     3      0.00000     26.62676     11.70456      9.56819
  215 1     3      0.00000      1.80514     16.72734      9.56819
  216 1     3      0.00000      1.80514     11.70456     18.86371
  217 1     3      0.00000     23.78414      2.51139     12.41081
  218 1     3      0.00000      4.64776     25.92051     12.41081
  219 1     3      0.00000      4.64776      2.51139     16.02109
  220 1     3      0.00000     23.78414     25.92051     16.02109
  221 1     3      0.00000     12.41081     23.78414      2.51139
  222 1     3      0.00000     12.41081      4.64776     25.92051
  223 1     3      0.00000     16.02109      4.64776      2.51139
  224 1     3      0.00000     16.02109     23.78414     25.92051
  225 1     3      0.00000      2.51139     12.41081     23.78414
  226 1     3      0.00000     25.92051     12.41081      4.64776
  227 1     3      0.00000      2.51139     16.02109      4.64776
  228 1     3      0.00000     25.92051     16.02109     23.78414
  229 1     3      0.00000      2.51139     23.78414     16.02109
  230 1     3      0.00000     25.92051      4.64776     16.02109
  231 1     3      0.00000      2.51139      4.64776     12.41081
  232 1     3      0.00000     25.92051     23.78414     12.41081
  233 1     3      0.00000     23.78414     12.41081     25.92051
  234 1     3      0.00000      4.64776     12.41081      2.51139
  235 1     3      0.00000      4.64776     16.02109     25.92051
  236 1     3      0.00000     23.78414     16.02109      2.51139
  237 1     3      0.00000     12.41081      2.51139      4.64776
  238 1     3      0.00000     12.41081     25.92051     23.78414
  239 1     3      0.00000     16.02109      2.51139     23.78414
  240 1     3      0.00000     16.02109     25.92051      4.64776
  241 1     3      0.00000     10.07683     15.23921     27.62443
  242 1     3      0.00000     18.35507     13.19269     27.62443
  243 1     3      0.00000     18.35507     15.23921      0.80747
  244 1     3      0.00000     10.07683     13.19269      0.80747
  245 1     3      0.00000     27.62443     10.07683     15.23921
  246 1     3      0.00000     27.62443     18.35507     13.19269
  247 1     3      0.00000      0.80747     18.35507     15.23921
  248 1     3      0.00000      0.80747     10.07683     13.19269
  249 1     3      0.00000     15.23921     27.62443     10.07683
  250 1     3      0.00000     13.19269     27.62443     18.35507
  251 1     3      0.00000     15.23921      0.80747     18.35507
  252 1     3      0.00000     13.19269      0.80747     10.07683
  253 1     3      0.00000     15.23921     10.07683      0.80747
  254 1     3      0.00000     13.19269     18.35507      0.80747
  255 1     3      0.00000     15.23921     18.35507     27.62443
  256 1     3      0.00000     13.19269     10.07683     27.62443
  257 1     3      0.00000     10.07683     27.62443     13.19269
  258 1     3      0.00000     18.35507     27.62443     15.23921
  259 1     3      0.00000     18.35507      0.80747     13.19269
  260 1     3      0.00000     10.07683      0.80747     15.23921
  261 1     3      0.00000     27.62443     15.23921     18.35507
  262 1     3      0.00000     27.62443     13.19269     10.07683
  263 1     3      0.00000      0.80747     15.23921     10.07683
  264 1     3      0.00000      0.80747     13.19269     18.35507
  265 1     3      0.00000     24.29278      1.02326     13.40848
  266 1     3      0.00000      4.13912     27.40864     13.40848
  267 1     3      0.00000      4.13912      1.02326     15.02342
  268 1     3      0.00000     24.29278     27.40864     15.02342
  269 1     3      0.00000     13.40848     24.29278      1.02326
  270 1     3      0.00000     13.40848      4.13912     27.40864
  271 1     3      0.00000     15.02342      4.13912      1.02326
  272 1     3      0.00000     15.02342     24.29278     27.40864
  273 1     3      0.00000      1.02326     13.40848     24.29278
  274 1     3      0.00000     27.40864     13.40848      4.13912
  275 1     3      0.00000      1.02326     15.02342      4.13912
  276 1     3      0.00000     27.40864     15.02342     24.29278
  277 1     3      0.00000      1.02326     24.29278     15.02342
  278 1     3      0.00000     27.40864      4.13912     15.02342
  279 1     3      0.00000      1.02326      4.13912     13.40848
  280 1     3      0.00000     27.40864     24.29278     13.40848
  281 1     3      0.00000     24.29278     13.40848     27.40864
  282 1     3      0.00000      4.13912     13.40848      1.02326
  283 1     3      0.00000      4.13912     15.02342     27.40864
  284 1     3      0.00000     24.29278     15.02342      1.02326
  285 1     3      0.00000     13.40848      1.02326      4.13912
  286 1     3      0.00000     13.40848     27.40864     24.29278
  287 1     3      0.00000     15.02342      1.02326     24.29278
  288 1     3      0.00000     15.02342     27.40864      4.13912
  289 1     3      0.00000     10.89624     12.35622     25.69135
  290 1     3      0.00000     17.53566     16.07568     25.69135
  291 1     3      0.00000     17.53566     12.35622      2.74055
  292 1     3      0.00000     10.89624     16.07568      2.74055
  293 1     3      0.00000     25.69135     10.89624     12.35622
  294 1     3      0.00000     25.69135     17.53566     16.07568
  295 1     3      0.00000      2.74055     17.53566     12.35622
  296 1     3      0.00000      2.74055     10.89624     16.07568
  297 1     3      0.00000     12.35622     25.69135     10.89624
  298 1     3      0.00000     16.07568     25.69135     17.53566
  299 1     3      0.00000     12.35622      2.74055     17.53566
  300 1     3      0.00000     16.07568      2.74055     10.89624
  301 1     3      0.00000     12.35622     10.89624      2.74055
  302 1     3      0.00000     16.07568     17.53566      2.74055
  303 1     3      0.00000     12.35622     17.53566     25.69135
  304 1     3      0.00000     16.07568     10.89624     25.69135
  305 1     3      0.00000     10.89624     25.69135     16.07568
  306 1     3      0.00000     17.53566     25.69135     12.35622
  307 1     3      0.00000     17.53566      2.74055     16.07568
  308 1     3      0.00000     10.89624      2.74055     12.35622
  309 1     3      0.00000     25.69135     12.35622     17.53566
  310 1     3      0.00000     25.69135     16.07568     10.89624
  311 1     3      0.00000      2.74055     12.35622     10.89624
  312 1     3      0.00000      2.74055     16.07568     17.53566
  313 1     3      0.00000     25.11219     26.57217     11.47540
  314 1     3      0.00000      3.31971      1.85973     11.47540
  315 1     3      0.00000      3.31971     26.57217     16.95650
  316 1     3      0.00000     25.11219      1.85973     16.95650
  317 1     3      0.00000     11.47540     25.11219     26.57217
  318 1     3      0.00000     11.47540      3.31971      1.85973
  319 1     3      0.00000     16.95650      3.31971     26.57217
  320 1     3      0.00000     16.95650     25.11219      1.85973
  321 1     3      0.00000     26.57217     11.47540     25.11219
  322 1     3      0.00000      1.85973     11.47540      3.31971
  323 1     3      0.00000     26.57217     16.95650      3.31971
  324 1     3      0.00000      1.85973     16.95650     25.11219
  325 1     3      0.00000     26.57217     25.11219     16.95650
  326 1     3      0.00000      1.85973      3.31971     16.95650
  327 1     3      0.00000     26.57217      3.31971     11.47540
  328 1     3      0.00000      1.85973     25.11219     11.47540
  329 1     3      0.00000     25.11219     11.47540      1.85973
  330 1     3      0.00000      3.31971     11.47540     26.57217
  331 1     3      0.00000      3.31971     16.95650      1.85973
  332 1     3      0.00000     25.11219     16.95650     26.57217
  333 1     3      0.00000     11.47540     26.57217      3.31971
  334 1     3      0.00000     11.47540      1.85973     25.11219
  335 1     3      0.00000     16.95650     26.57217     25.11219
  336 1     3      0.00000     16.95650      1.85973      3.31971
  337 1     3      0.00000      9.46214     11.52771     26.54146
  338 1     3      0.00000     18.96976     16.90419     26.54146
  339 1     3      0.00000     18.96976     11.52771      1.89044
  340 1     3      0.00000      9.46214     16.90419      1.89044
  341 1     3      0.00000     26.54146      9.46214     11.52771
  342 1     3      0.00000     26.54146     18.96976     16.90419
  343 1     3      0.00000      1.89044     18.96976     11.52771
  344 1     3      0.00000      1.89044      9.46214     16.90419
  345 1     3      0.00000     11.52771     26.54146      9.46214
  346 1     3      0.00000     16.90419     26.54146     18.96976
  347 1     3      0.00000     11.52771      1.89044     18.96976
  348 1     3      0.00000     16.90419      1.89044      9.46214
  349 1     3      0.00000     11.52771      9.46214      1.89044
  350 1     3      0.00000     16.90419     18.96976      1.89044
  351 1     3      0.00000     11.52771     18.96976     26.54146
  352 1     3      0.00000     16.90419      9.46214     26.54146
  353 1     3      0.00000      9.46214     26.54146     16.90419
  354 1     3      0.00000     18.96976     26.54146     11.52771
  355 1     3      0.00000     18.96976      1.89044     16.90419
  356 1     3      0.00000      9.46214      1.89044     11.52771
  357 1     3      0.00000     26.54146     11.52771     18.96976
  358 1     3      0.00000     26.54146     16.90419      9.46214
  359 1     3      0.00000      1.89044     11.52771      9.46214
  360 1     3      0.00000      1.89044     16.90419     18.96976
  361 1     3      0.00000     23.67809     25.74366     12.32551
  362 1     3      0.00000      4.75381      2.68824     12.32551
  363 1     3      0.00000      4.75381     25.74366     16.10639
  364 1     3      0.00000     23.67809      2.68824     16.10639
  365 1     3      0.00000     12.32551     23.67809     25.74366
  366 1     3      0.00000     12.32551      4.75381      2.68824
  367 1     3      0.00000     16.10639      4.75381     25.74366
  368 1     3      0.00000     16.10639     23.67809      2.68824
  369 1     3      0.00000     25.74366     12.32551     23.67809
  370 1     3      0.00000      2.68824     12.32551      4.75381
  371 1     3      0.00000     25.74366     16.10639      4.75381
  372 1     3      0.00000      2.68824     16.10639     23.67809
  373 1     3      0.00000     25.74366     23.67809     16.10639
  374 1     3      0.00000      2.68824      4.75381     16.10639
  375 1     3      0.00000     25.74366      4.75381     12.32551
  376 1     3      0.00000      2.68824     23.67809     12.32551
  377 1     3      0.00000     23.67809     12.32551      2.68824
  378 1     3      0.00000      4.75381     12.32551     25.74366
  379 1     3      0.00000      4.75381     16.10639      2.68824
  380 1     3      0.00000     23.67809     16.10639     25.74366
  381 1     3      0.00000     12.32551     25.74366      4.75381
  382 1     3      0.00000     12.32551      2.68824     23.67809
  383 1     3      0.00000     16.10639     25.74366     23.67809
  384 1     3      0.00000     16.10639      2.68824      4.75381
  385 1     3      0.00000     10.19653     13.08209     27.25653
  386 1     3      0.00000     18.23537     15.34981     27.25653