Created by Ryther's code on 2024-12-06 23:15:12.272081

    792 atoms
    928 bonds
    1632 angles
    2144 dihedrals
    432 impropers

    6 atom types
    9 bond types
    18 angle types
    4 dihedral types
    2 improper types

0.00000000 20.919 xlo xhi
0.00000000 28.76721137 ylo yhi
0.00000000 27.45200315 zlo zhi
0.98295784 3.86628278 10.1622487 xy xz yz 

Masses 

    1    12.0107
    2    112.411
    3    112.411
    4    1.00794
    5    15.9994
    6    15.9994

Pair Coeffs

    1       0.10500      3.43085 # C_R C_R
    2       0.22800      2.53728 # Cd4f2 Cd4f2
    3       0.22800      2.53728 # Cd8f4 Cd8f4
    4       0.04400      2.57113 # H_ H_
    5       0.06000      3.11815 # O_2_M O_2_M
    6       0.06000      3.11815 # O_3_f O_3_f

Bond Coeffs

    1      86.27030      2.44566 # Cd8f4 O_3_f bond order=0.5
    2      86.27781      2.44566 # Cd8f4 O_2_M bond order=0.5
    3     357.44038      1.08142 # C_R H_ bond order=1.0
    4     462.65505      1.37926 # C_R C_R bond order=1.5
    5     391.66951      1.45800 # C_R C_R bond order=1.0
    6     714.55744      1.26901 # C_R O_2_M bond order=1.5
    7     714.49531      1.26901 # C_R O_3_f bond order=1.5
    8     110.66524      2.25084 # Cd4f2 O_3_f bond order=0.5
    9     110.67486      2.25084 # Cd4f2 O_2_M bond order=0.5

Angle Coeffs

    1  fourier                 73.52983      0.34375      0.37500      0.28125 # O_2_M Cd8f4 O_3_f
    2  fourier                 73.53622      0.34375      0.37500      0.28125 # O_2_M Cd8f4 O_2_M
    3  cosine/periodic        111.29751           -1            3 # C_R C_R C_R
    4  cosine/periodic        102.18328           -1            3 # C_R C_R C_R
    5  cosine/periodic         57.28902           -1            3 # C_R C_R H_
    6  cosine/periodic        137.71425           -1            3 # C_R C_R O_2_M
    7  cosine/periodic        137.70227           -1            3 # C_R C_R O_3_f
    8  cosine/periodic        206.76045           -1            3 # O_2_M C_R O_3_f
    9  cosine/periodic        206.77843           -1            3 # O_2_M C_R O_2_M
    10 cosine/periodic         34.58274           -1            3 # C_R O_2_M Cd8f4
    11 fourier                 42.74455      0.34375      0.37500      0.28125 # Cd4f2 O_3_f Cd8f4
    12 fourier                 83.16101      0.34375      0.37500      0.28125 # C_R O_3_f Cd8f4
    13 fourier                101.92665      0.34375      0.37500      0.28125 # C_R O_3_f Cd4f2
    14 cosine/periodic         41.85292           -1            3 # C_R O_2_M Cd4f2
    15 cosine/periodic         81.67819            1            4 # O_3_f Cd4f2 O_3_f
    16 cosine/periodic         81.68529            1            4 # O_2_M Cd4f2 O_3_f
    17 cosine/periodic         81.69240            1            4 # O_2_M Cd4f2 O_2_M
    18 fourier                 48.69434      0.34375      0.37500      0.28125 # Cd4f2 O_3_f Cd4f2

Dihedral Coeffs

    1       3.36856           -1            2 # X C_R C_R X bond order=1.5
    2       1.25000           -1            2 # X C_R C_R X bond order=1.0
    3       6.73711           -1            2 # X C_R O_2_M X bond order=1.5
    4       0.00000           -1            2 # X C_R O_3_f X bond order=1.5

Improper Coeffs

    1       2.00000      1.00000     -1.00000      0.00000            1 # C_R X X X O_2 present=False
    2      16.66667      1.00000     -1.00000      0.00000            1 # C_R X X X O_2 present=True

Atoms

    1 1     3      0.00000     11.57121     16.89133     11.13892
    2 1     4      0.00000      3.45181      9.89161      7.67009
    3 1     4      0.00000      5.53106      8.75777      4.38958
    4 1     4      0.00000      6.28399      7.00695      7.95559
    5 1     4      0.00000      2.51953      8.28147      9.38584
    6 1     4      0.00000      2.11993      7.90089     11.64102
    7 1     4      0.00000      6.09919      8.00173     12.36026
    8 1     4      0.00000      6.50519      8.23365     10.08038
    9 1     4      0.00000      3.67085     11.95066      6.62691
   10 1     4      0.00000      2.85763     13.71959      5.35177
   11 1     4      0.00000      2.78658     11.35046      2.08361
   12 1     4      0.00000      3.65559      9.58744      3.34365
   13 1     4      0.00000      7.71343      8.13780      4.02035
   14 1     4      0.00000      9.26890      6.71680      3.03756
   15 1     4      0.00000      8.30011      3.81319      5.65374
   16 1     4      0.00000      6.69594      5.21261      6.61319
   17 1     1      0.00000      4.81521      8.41979      8.04206
   18 1     1      0.00000      4.12329      9.35387      7.26655
   19 1     1      0.00000      4.40303      9.50673      5.90767
   20 1     1      0.00000      5.35348      8.67601      5.31883
   21 1     1      0.00000      6.04643      7.72694      6.06552
   22 1     1      0.00000      5.78920      7.62552      7.43126
   23 1     1      0.00000      4.55153      8.26933      9.49290
   24 1     1      0.00000      3.25320      8.19232      9.98429
   25 1     1      0.00000      3.01264      7.98785     11.32807
   26 1     1      0.00000      4.07293      7.90692     12.22849
   27 1     1      0.00000      5.37048      8.02691     11.75220
   28 1     1      0.00000      5.60991      8.18366     10.39607
   29 1     1      0.00000      3.76116     10.59006      5.11568
   30 1     1      0.00000      3.50595     11.82488      5.70041
   31 1     1      0.00000      3.01158     12.87725      4.94136
   32 1     1      0.00000      2.73977     12.71385      3.59072
   33 1     1      0.00000      2.97615     11.47903      3.00599
   34 1     1      0.00000      3.48967     10.42606      3.75955
   35 1     1      0.00000      7.04001      6.82894      5.42314
   36 1     1      0.00000      7.82053      7.25544      4.35663
   37 1     1      0.00000      8.75233      6.40949      3.77328
   38 1     1      0.00000      8.93859      5.13010      4.24545
   39 1     1      0.00000      8.17546      4.69209      5.31196
   40 1     1      0.00000      7.22491      5.53025      5.88983
   41 1     1      0.00000      3.80463      7.71855     13.67796
   42 1     1      0.00000      2.18808     13.86063      2.78363
   43 1     1      0.00000      9.93610      4.20916      3.60719
   44 1     5      0.00000     10.14359     16.49332     12.93401
   45 1     6      0.00000     12.14067     17.29600     13.40824
   46 1     5      0.00000      1.90380     13.63813      1.58810
   47 1     5      0.00000      2.09522     14.95830      3.39032
   48 1     5      0.00000     10.10890      3.08056      4.11368
   49 1     5      0.00000     10.57026      4.58966      2.61069
   50 1     3      0.00000      3.24605      7.65453     16.31308
   51 1     2      0.00000      1.93314      5.08112     13.72600
   52 1     4      0.00000     11.36545     14.65424     19.78191
   53 1     4      0.00000      9.28620     15.78808     23.06243
   54 1     4      0.00000      8.53328     17.53890     19.49641
   55 1     4      0.00000     12.29773     16.26438     18.06616
   56 1     4      0.00000     12.69733     16.64497     15.81098
   57 1     4      0.00000      8.71807     16.54413     15.09174
   58 1     4      0.00000      8.31208     16.31221     17.37163
   59 1     4      0.00000     11.14641     12.59519     20.82509
   60 1     4      0.00000     11.95963     10.82626     22.10024
   61 1     4      0.00000     12.03068     13.19540     25.36840
   62 1     4      0.00000     11.16167     14.95841     24.10835
   63 1     4      0.00000      7.10383     16.40805     23.43166
   64 1     4      0.00000      5.54836     17.82906     24.41444
   65 1     4      0.00000      6.51715     20.73266     21.79826
   66 1     4      0.00000      8.12132     19.33324     20.83882
   67 1     1      0.00000     10.00205     16.12607     19.40994
   68 1     1      0.00000     10.69398     15.19198     20.18546
   69 1     1      0.00000     10.41423     15.03912     21.54433
   70 1     1      0.00000      9.46378     15.86984     22.13318
   71 1     1      0.00000      8.77083     16.81891     21.38648
   72 1     1      0.00000      9.02807     16.92033     20.02075
   73 1     1      0.00000     10.26574     16.27653     17.95910
   74 1     1      0.00000     11.56407     16.35353     17.46771
   75 1     1      0.00000     11.80462     16.55801     16.12393
   76 1     1      0.00000     10.74433     16.63893     15.22351
   77 1     1      0.00000      9.44678     16.51895     15.69980
   78 1     1      0.00000      9.20735     16.36219     17.05593
   79 1     1      0.00000     11.05610     13.95579     22.33632
   80 1     1      0.00000     11.31131     12.72098     21.75159
   81 1     1      0.00000     11.80568     11.66860     22.51064
   82 1     1      0.00000     12.07749     11.83201     23.86128
   83 1     1      0.00000     11.84111     13.06682     24.44601
   84 1     1      0.00000     11.32759     14.11979     23.69245
   85 1     1      0.00000      7.77725     17.71692     22.02886
   86 1     1      0.00000      6.99673     17.29042     23.09537
   87 1     1      0.00000      6.06493     18.13637     23.67873
   88 1     1      0.00000      5.87867     19.41576     23.20655
   89 1     1      0.00000      6.64180     19.85377     22.14004
   90 1     1      0.00000      7.59236     19.01560     21.56218
   91 1     1      0.00000     11.01263     16.82730     13.77404
   92 1     1      0.00000     12.62918     10.68523     24.66837
   93 1     1      0.00000      4.88116     20.33669     23.84481
   94 1     5      0.00000      4.67367      8.05253     14.51799
   95 1     6      0.00000      2.67659      7.24985     14.04376
   96 1     5      0.00000     12.91346     10.90772     25.86390
   97 1     5      0.00000     12.72204      9.58756     24.06168
   98 1     5      0.00000      4.70837     21.46530     23.33832
   99 1     5      0.00000      4.24700     19.95619     24.84132
  100 1     2      0.00000      1.80439     16.95701      2.58708
  101 1     2      0.00000      0.49148     14.38361      0.00000
  102 1     4      0.00000      9.92379     23.95672      6.05591
  103 1     4      0.00000      7.84454     25.09056      9.33643
  104 1     4      0.00000      7.09161     26.84139      5.77041
  105 1     4      0.00000     10.85607     25.56686      4.34016
  106 1     4      0.00000     11.25566     25.94745      2.08498
  107 1     4      0.00000      7.27641     25.84661      1.36574
  108 1     4      0.00000      6.87041     25.61469      3.64563
  109 1     4      0.00000      9.70475     21.89767      7.09909
  110 1     4      0.00000     10.51796     20.12874      8.37423
  111 1     4      0.00000     10.58902     22.49788     11.64239
  112 1     4      0.00000      9.72001     24.26089     10.38235
  113 1     4      0.00000      5.66217     25.71053      9.70566
  114 1     4      0.00000      4.10670     27.13154     10.68844
  115 1     4      0.00000      5.07549     30.03514      8.07226
  116 1     4      0.00000      6.67965     28.63572      7.11281
  117 1     1      0.00000      8.56039     25.42855      5.68394
  118 1     1      0.00000      9.25231     24.49446      6.45946
  119 1     1      0.00000      8.97257     24.34160      7.81833
  120 1     1      0.00000      8.02212     25.17232      8.40718
  121 1     1      0.00000      7.32917     26.12139      7.66048
  122 1     1      0.00000      7.58640     26.22281      6.29474
  123 1     1      0.00000      8.82407     25.57901      4.23310
  124 1     1      0.00000     10.12240     25.65601      3.74171
  125 1     1      0.00000     10.36296     25.86049      2.39793
  126 1     1      0.00000      9.30267     25.94141      1.49751
  127 1     1      0.00000      8.00512     25.82143      1.97380
  128 1     1      0.00000      7.76569     25.66467      3.32993
  129 1     1      0.00000      9.61444     23.25827      8.61032
  130 1     1      0.00000      9.86965     22.02346      8.02559
  131 1     1      0.00000     10.36402     20.97108      8.78464
  132 1     1      0.00000     10.63583     21.13449     10.13528
  133 1     1      0.00000     10.39945     22.36930     10.72001
  134 1     1      0.00000      9.88593     23.42227      9.96645
  135 1     1      0.00000      6.33559     27.01940      8.30286
  136 1     1      0.00000      5.55507     26.59290      9.36937
  137 1     1      0.00000      4.62327     27.43885      9.95272
  138 1     1      0.00000      4.43701     28.71824      9.48055
  139 1     1      0.00000      5.20014     29.15625      8.41404
  140 1     1      0.00000      6.15069     28.31808      7.83617
  141 1     1      0.00000      9.57097     26.12978      0.04804
  142 1     1      0.00000     11.18752     19.98771     10.94237
  143 1     1      0.00000      3.43950     29.63917     10.11881
  144 1     5      0.00000      3.23201     17.35501      0.79199
  145 1     6      0.00000      1.23493     16.55234      0.31776
  146 1     5      0.00000     11.47179     20.21020     12.13790
  147 1     5      0.00000     11.28038     18.89004     10.33568
  148 1     5      0.00000      3.26670     30.76778      9.61232
  149 1     5      0.00000      2.80534     29.25868     11.11532
  150 1     2      0.00000     13.99583     36.35606     24.86493
  151 1     4      0.00000      5.87643     29.35634     21.39609
  152 1     4      0.00000      7.95568     28.22250     18.11558
  153 1     4      0.00000      8.70861     26.47168     21.68159
  154 1     4      0.00000      4.94415     27.74620     23.11184
  155 1     4      0.00000      4.54455     27.36562     25.36702
  156 1     4      0.00000      8.52381     27.46646     26.08627
  157 1     4      0.00000      8.92981     27.69838     23.80638
  158 1     4      0.00000      6.09547     31.41539     20.35292
  159 1     4      0.00000      5.28225     33.18432     19.07777
  160 1     4      0.00000      5.21120     30.81519     15.80961
  161 1     4      0.00000      6.08021     29.05218     17.06966
  162 1     4      0.00000     10.13805     27.60253     17.74635
  163 1     4      0.00000     11.69352     26.18153     16.76357
  164 1     4      0.00000     10.72473     23.27792     19.37974
  165 1     4      0.00000      9.12057     24.67734     20.33919
  166 1     1      0.00000      7.23983     27.88452     21.76807
  167 1     1      0.00000      6.54791     28.81860     20.99255
  168 1     1      0.00000      6.82765     28.97146     19.63367
  169 1     1      0.00000      7.77810     28.14074     19.04483
  170 1     1      0.00000      8.47105     27.19167     19.79152
  171 1     1      0.00000      8.21382     27.09025     21.15726
  172 1     1      0.00000      6.97615     27.73406     23.21890
  173 1     1      0.00000      5.67782     27.65706     23.71030
  174 1     1      0.00000      5.43726     27.45258     25.05407
  175 1     1      0.00000      6.49755     27.37165     25.95450
  176 1     1      0.00000      7.79510     27.49164     25.47820
  177 1     1      0.00000      8.03453     27.64839     24.12208
  178 1     1      0.00000      6.18578     30.05479     18.84168
  179 1     1      0.00000      5.93057     31.28961     19.42641
  180 1     1      0.00000      5.43620     32.34198     18.66736
  181 1     1      0.00000      5.16439     32.17858     17.31672
  182 1     1      0.00000      5.40077     30.94376     16.73200
  183 1     1      0.00000      5.91429     29.89079     17.48555
  184 1     1      0.00000      9.46463     26.29367     19.14914
  185 1     1      0.00000     10.24515     26.72017     18.08263
  186 1     1      0.00000     11.17695     25.87422     17.49928
  187 1     1      0.00000     11.36321     24.59483     17.97145
  188 1     1      0.00000     10.60008     24.15682     19.03796
  189 1     1      0.00000      9.64953     24.99498     19.61583
  190 1     1      0.00000      6.22925     27.18328     27.40396
  191 1     1      0.00000      4.61270     33.32536     16.50963
  192 1     1      0.00000     12.36072     23.67389     17.33319
  193 1     5      0.00000     12.56821     35.95805     26.66001
  194 1     6      0.00000     14.56529     36.76073     27.13425
  195 1     5      0.00000      4.32842     33.10286     15.31410
  196 1     5      0.00000      4.51984     34.42303     17.11632
  197 1     5      0.00000     12.53352     22.54529     17.83968
  198 1     5      0.00000     12.99488     24.05439     16.33669
  199 1     3      0.00000     11.77241      2.57340      2.58708
  200 1     2      0.00000     10.45950      0.00000      0.00000
  201 1     4      0.00000     19.89181      9.57312      6.05591
  202 1     4      0.00000     17.81256     10.70696      9.33643
  203 1     4      0.00000     17.05963     12.45778      5.77041
  204 1     4      0.00000     20.82409     11.18326      4.34016
  205 1     4      0.00000     21.22369     11.56384      2.08498
  206 1     4      0.00000     17.24443     11.46300      1.36574
  207 1     4      0.00000     16.83843     11.23108      3.64563
  208 1     4      0.00000     19.67277      7.51407      7.09909
  209 1     4      0.00000     20.48599      5.74514      8.37423
  210 1     4      0.00000     20.55704      8.11427     11.64239
  211 1     4      0.00000     19.68803      9.87729     10.38235
  212 1     4      0.00000     15.63019     11.32693      9.70566
  213 1     4      0.00000     14.07472     12.74793     10.68844
  214 1     4      0.00000     15.04351     15.65154      8.07226
  215 1     4      0.00000     16.64768     14.25212      7.11281
  216 1     1      0.00000     18.52841     11.04494      5.68394
  217 1     1      0.00000     19.22033     10.11086      6.45946
  218 1     1      0.00000     18.94059      9.95800      7.81833
  219 1     1      0.00000     17.99014     10.78872      8.40718
  220 1     1      0.00000     17.29719     11.73779      7.66048
  221 1     1      0.00000     17.55442     11.83921      6.29474
  222 1     1      0.00000     18.79209     11.19540      4.23310
  223 1     1      0.00000     20.09042     11.27241      3.74171
  224 1     1      0.00000     20.33098     11.47688      2.39793
  225 1     1      0.00000     19.27069     11.55781      1.49751
  226 1     1      0.00000     17.97314     11.43782      1.97380
  227 1     1      0.00000     17.73371     11.28107      3.32993
  228 1     1      0.00000     19.58246      8.87467      8.61032
  229 1     1      0.00000     19.83767      7.63985      8.02559
  230 1     1      0.00000     20.33204      6.58748      8.78464
  231 1     1      0.00000     20.60385      6.75088     10.13528
  232 1     1      0.00000     20.36747      7.98570     10.72001
  233 1     1      0.00000     19.85395      9.03867      9.96645
  234 1     1      0.00000     16.30361     12.63579      8.30286
  235 1     1      0.00000     15.52309     12.20929      9.36937
  236 1     1      0.00000     14.59129     13.05524      9.95272
  237 1     1      0.00000     14.40503     14.33463      9.48055
  238 1     1      0.00000     15.16816     14.77264      8.41404
  239 1     1      0.00000     16.11871     13.93448      7.83617
  240 1     1      0.00000     19.53899     11.74618      0.04804
  241 1     1      0.00000     21.15554      5.60410     10.94237
  242 1     1      0.00000     13.40752     15.25557     10.11881
  243 1     5      0.00000     13.20003      2.97141      0.79199
  244 1     6      0.00000     11.20295      2.16873      0.31776
  245 1     5      0.00000     21.43982      5.82660     12.13790
  246 1     5      0.00000     21.24840      4.50643     10.33568
  247 1     5      0.00000     13.23472     16.38417      9.61232
  248 1     5      0.00000     12.77336     14.87507     11.11532
  249 1     2      0.00000     23.96385     21.97245     24.86493
  250 1     4      0.00000     15.84445     14.97274     21.39609
  251 1     4      0.00000     17.92371     13.83890     18.11558
  252 1     4      0.00000     18.67663     12.08807     21.68159
  253 1     4      0.00000     14.91217     13.36260     23.11184
  254 1     4      0.00000     14.51258     12.98201     25.36702
  255 1     4      0.00000     18.49183     13.08285     26.08627
  256 1     4      0.00000     18.89783     13.31477     23.80638
  257 1     4      0.00000     16.06349     17.03179     20.35292
  258 1     4      0.00000     15.25028     18.80072     19.07777
  259 1     4      0.00000     15.17922     16.43158     15.80961
  260 1     4      0.00000     16.04823     14.66857     17.06966
  261 1     4      0.00000     20.10607     13.21893     17.74635
  262 1     4      0.00000     21.66154     11.79792     16.76357
  263 1     4      0.00000     20.69276      8.89432     19.37974
  264 1     4      0.00000     19.08859     10.29374     20.33919
  265 1     1      0.00000     17.20786     13.50091     21.76807
  266 1     1      0.00000     16.51593     14.43500     20.99255
  267 1     1      0.00000     16.79567     14.58786     19.63367
  268 1     1      0.00000     17.74612     13.75714     19.04483
  269 1     1      0.00000     18.43907     12.80807     19.79152
  270 1     1      0.00000     18.18184     12.70665     21.15726
  271 1     1      0.00000     16.94417     13.35045     23.21890
  272 1     1      0.00000     15.64584     13.27345     23.71030
  273 1     1      0.00000     15.40528     13.06897     25.05407
  274 1     1      0.00000     16.46557     12.98805     25.95450
  275 1     1      0.00000     17.76312     13.10803     25.47820
  276 1     1      0.00000     18.00256     13.26479     24.12208
  277 1     1      0.00000     16.15380     15.67119     18.84168
  278 1     1      0.00000     15.89859     16.90600     19.42641
  279 1     1      0.00000     15.40422     17.95838     18.66736
  280 1     1      0.00000     15.13241     17.79497     17.31672
  281 1     1      0.00000     15.36880     16.56016     16.73200
  282 1     1      0.00000     15.88231     15.50719     17.48555
  283 1     1      0.00000     19.43266     11.91006     19.14914
  284 1     1      0.00000     20.21317     12.33656     18.08263
  285 1     1      0.00000     21.14497     11.49061     17.49928
  286 1     1      0.00000     21.33123     10.21122     17.97145
  287 1     1      0.00000     20.56810      9.77321     19.03796
  288 1     1      0.00000     19.61755     10.61138     19.61583
  289 1     1      0.00000     16.19727     12.79968     27.40396
  290 1     1      0.00000     14.58072     18.94175     16.50963
  291 1     1      0.00000     22.32874      9.29029     17.33319
  292 1     5      0.00000     22.53623     21.57445     26.66001
  293 1     6      0.00000     24.53331     22.37712     27.13425
  294 1     5      0.00000     14.29645     18.71926     15.31410
  295 1     5      0.00000     14.48786     20.03942     17.11632
  296 1     5      0.00000     22.50154      8.16168     17.83968
  297 1     5      0.00000     22.96290      9.67078     16.33669
  298 1     2      0.00000     22.52219     31.27493     11.13892
  299 1     4      0.00000     14.40279     24.27522      7.67009
  300 1     4      0.00000     16.48204     23.14138      4.38958
  301 1     4      0.00000     17.23497     21.39056      7.95559
  302 1     4      0.00000     13.47051     22.66508      9.38584
  303 1     4      0.00000     13.07091     22.28449     11.64102
  304 1     4      0.00000     17.05017     22.38533     12.36026
  305 1     4      0.00000     17.45617     22.61725     10.08038
  306 1     4      0.00000     14.62183     26.33427      6.62691
  307 1     4      0.00000     13.80861     28.10320      5.35177
  308 1     4      0.00000     13.73756     25.73406      2.08361
  309 1     4      0.00000     14.60657     23.97105      3.34365
  310 1     4      0.00000     18.66441     22.52141      4.02035
  311 1     4      0.00000     20.21988     21.10040      3.03756
  312 1     4      0.00000     19.25109     18.19680      5.65374
  313 1     4      0.00000     17.64692     19.59622      6.61319
  314 1     1      0.00000     15.76619     22.80339      8.04206
  315 1     1      0.00000     15.07426     23.73748      7.26655
  316 1     1      0.00000     15.35401     23.89034      5.90767
  317 1     1      0.00000     16.30446     23.05962      5.31883
  318 1     1      0.00000     16.99741     22.11055      6.06552
  319 1     1      0.00000     16.74018     22.00913      7.43126
  320 1     1      0.00000     15.50250     22.65293      9.49290
  321 1     1      0.00000     14.20418     22.57593      9.98429
  322 1     1      0.00000     13.96362     22.37145     11.32807
  323 1     1      0.00000     15.02391     22.29053     12.22849
  324 1     1      0.00000     16.32146     22.41051     11.75220
  325 1     1      0.00000     16.56089     22.56727     10.39607
  326 1     1      0.00000     14.71214     24.97367      5.11568
  327 1     1      0.00000     14.45693     26.20848      5.70041
  328 1     1      0.00000     13.96256     27.26086      4.94136
  329 1     1      0.00000     13.69075     27.09745      3.59072
  330 1     1      0.00000     13.92713     25.86264      3.00599
  331 1     1      0.00000     14.44065     24.80967      3.75955
  332 1     1      0.00000     17.99099     21.21254      5.42314
  333 1     1      0.00000     18.77151     21.63904      4.35663
  334 1     1      0.00000     19.70331     20.79309      3.77328
  335 1     1      0.00000     19.88957     19.51370      4.24545
  336 1     1      0.00000     19.12644     19.07569      5.31196
  337 1     1      0.00000     18.17589     19.91386      5.88983
  338 1     1      0.00000     14.75561     22.10216     13.67796
  339 1     1      0.00000     13.13906     28.24423      2.78363
  340 1     1      0.00000     20.88708     18.59277      3.60719
  341 1     5      0.00000     21.09457     30.87693     12.93401
  342 1     6      0.00000     23.09165     31.67961     13.40824
  343 1     5      0.00000     12.85478     28.02174      1.58810
  344 1     5      0.00000     13.04620     29.34190      3.39032
  345 1     5      0.00000     21.05988     17.46416      4.11368
  346 1     5      0.00000     21.52124     18.97327      2.61069
  347 1     2      0.00000     14.19703     22.03813     16.31308
  348 1     2      0.00000     12.88412     19.46473     13.72600
  349 1     4      0.00000     22.31643     29.03785     19.78191
  350 1     4      0.00000     20.23718     30.17169     23.06243
  351 1     4      0.00000     19.48425     31.92251     19.49641
  352 1     4      0.00000     23.24871     30.64799     18.06616
  353 1     4      0.00000     23.64831     31.02857     15.81098
  354 1     4      0.00000     19.66905     30.92773     15.09174
  355 1     4      0.00000     19.26305     30.69581     17.37163
  356 1     4      0.00000     22.09739     26.97880     20.82509
  357 1     4      0.00000     22.91061     25.20987     22.10024
  358 1     4      0.00000     22.98166     27.57900     25.36840
  359 1     4      0.00000     22.11265     29.34202     24.10835
  360 1     4      0.00000     18.05481     30.79166     23.43166
  361 1     4      0.00000     16.49934     32.21266     24.41444
  362 1     4      0.00000     17.46813     35.11627     21.79826
  363 1     4      0.00000     19.07230     33.71685     20.83882
  364 1     1      0.00000     20.95303     30.50967     19.40994
  365 1     1      0.00000     21.64495     29.57559     20.18546
  366 1     1      0.00000     21.36521     29.42273     21.54433
  367 1     1      0.00000     20.41476     30.25345     22.13318
  368 1     1      0.00000     19.72181     31.20252     21.38648
  369 1     1      0.00000     19.97904     31.30394     20.02075
  370 1     1      0.00000     21.21672     30.66013     17.95910
  371 1     1      0.00000     22.51504     30.73714     17.46771
  372 1     1      0.00000     22.75560     30.94161     16.12393
  373 1     1      0.00000     21.69531     31.02254     15.22351
  374 1     1      0.00000     20.39776     30.90255     15.69980
  375 1     1      0.00000     20.15833     30.74580     17.05593
  376 1     1      0.00000     22.00708     28.33940     22.33632
  377 1     1      0.00000     22.26229     27.10458     21.75159
  378 1     1      0.00000     22.75666     26.05221     22.51064
  379 1     1      0.00000     23.02847     26.21561     23.86128
  380 1     1      0.00000     22.79209     27.45043     24.44601
  381 1     1      0.00000     22.27857     28.50340     23.69245
  382 1     1      0.00000     18.72823     32.10052     22.02886
  383 1     1      0.00000     17.94771     31.67402     23.09537
  384 1     1      0.00000     17.01591     32.51997     23.67873
  385 1     1      0.00000     16.82965     33.79936     23.20655
  386 1     1      0.00000     17.59278     34.23737     22.14004
  387 1     1      0.00000     18.54333     33.39921     21.56218
  388 1     1      0.00000     21.96361     31.21091     13.77404
  389 1     1      0.00000     23.58016     25.06883     24.66837
  390 1     1      0.00000     15.83214     34.72030     23.84481
  391 1     5      0.00000     15.62465     22.43614     14.51799
  392 1     6      0.00000     13.62757     21.63346     14.04376
  393 1     5      0.00000     23.86444     25.29133     25.86390
  394 1     5      0.00000     23.67302     23.97116     24.06168
  395 1     5      0.00000     15.65934     35.84890     23.33832
  396 1     5      0.00000     15.19798     34.33980     24.84132
  397 1     3      0.00000      1.31291      2.57340      2.58708
  398 1     2      0.00000      0.00000      0.00000      0.00000
  399 1     4      0.00000      9.43231      9.57312      6.05591
  400 1     4      0.00000      7.35306     10.70696      9.33643
  401 1     4      0.00000      6.60013     12.45778      5.77041