Created by Ryther's code on 2024-12-08 14:50:13.014147

    424 atoms
    512 bonds
    912 angles
    960 dihedrals
    192 impropers

    7 atom types
    8 bond types
    13 angle types
    4 dihedral types
    3 improper types

0.00000000 25.7718 xlo xhi
0.00000000 25.7718 ylo yhi
0.00000000 25.7718 zlo zhi
0.0 0.0 0.0 xy xz yz 

Masses 

    1     79.904
    2    12.0107
    3    12.0107
    4    1.00794
    5    15.9994
    6    15.9994
    7      65.38

Pair Coeffs

    1       0.25100      3.73197 # Br Br
    2       0.10500      3.43085 # C_2 C_2
    3       0.10500      3.43085 # C_R C_R
    4       0.04400      2.57113 # H_ H_
    5       0.06000      3.11815 # O_2_M O_2_M
    6       0.06000      3.11815 # O_3_f O_3_f
    7       0.12400      2.46155 # Zn3f2 Zn3f2

Bond Coeffs

    1     122.16486      2.01487 # O_2_M Zn3f2 bond order=0.5
    2     122.15424      2.01487 # O_3_f Zn3f2 bond order=0.5
    3     357.44038      1.08142 # C_R H_ bond order=1.0
    4     714.55744      1.26901 # C_R O_2_M bond order=1.5
    5     389.26171      1.46100 # C_2 C_R bond order=1.0
    6     520.53955      1.32611 # C_2 C_R bond order=2.0
    7     462.65505      1.37926 # C_R C_R bond order=1.5
    8     230.99668      1.90584 # Br C_R bond order=1.0

Angle Coeffs

    1  fourier                131.50718      0.34375      0.37500      0.28125 # O_2_M Zn3f2 O_2_M
    2  fourier                131.49574      0.34375      0.37500      0.28125 # O_2_M Zn3f2 O_3_f
    3  cosine/periodic        206.77843           -1            3 # O_2_M C_R O_2_M
    4  cosine/periodic        137.23527           -1            3 # C_2 C_R O_2_M
    5  cosine/periodic        107.57857           -1            3 # C_R C_2 C_R
    6  cosine/periodic        125.22235           -1            3 # C_R C_2 C_R
    7  cosine/periodic         61.51171           -1            3 # C_2 C_R H_
    8  cosine/periodic         57.28902           -1            3 # C_R C_R H_
    9  cosine/periodic        117.92729           -1            3 # C_2 C_R C_R
    10 cosine/periodic         87.42502           -1            3 # Br C_R C_2
    11 cosine/periodic         83.95370           -1            3 # Br C_R C_R
    12 fourier                 42.55738      0.34375      0.37500      0.28125 # Zn3f2 O_3_f Zn3f2
    13 cosine/periodic         42.21907           -1            3 # C_R O_2_M Zn3f2

Dihedral Coeffs

    1       6.73711           -1            2 # X C_R O_2_M X bond order=1.5
    2       1.25000           -1            2 # X C_2 C_R X bond order=1.0
    3       4.87169           -1            2 # X C_2 C_R X bond order=2.0
    4       3.36856           -1            2 # X C_R C_R X bond order=1.5

Improper Coeffs

    1      16.66667      1.00000     -1.00000      0.00000            1 # C_R X X X O_2 present=True
    2       2.00000      1.00000     -1.00000      0.00000            1 # C_2 X X X O_2 present=False
    3       2.00000      1.00000     -1.00000      0.00000            1 # C_R X X X O_2 present=False

Atoms

    1 1     7      0.00000      5.32420      5.32420      5.32420
    2 1     7      0.00000     20.44760     20.44760      5.32420
    3 1     7      0.00000     20.44760      5.32420     20.44760
    4 1     7      0.00000      5.32420     20.44760     20.44760
    5 1     7      0.00000      5.32420      5.32420     20.44760
    6 1     7      0.00000     20.44760     20.44760     20.44760
    7 1     7      0.00000      5.32420     20.44760      5.32420
    8 1     7      0.00000     20.44760      5.32420      5.32420
    9 1     7      0.00000      5.32420     18.21010     18.21010
   10 1     7      0.00000     20.44760      7.56170     18.21010
   11 1     7      0.00000     20.44760     18.21010      7.56170
   12 1     7      0.00000      5.32420      7.56170      7.56170
   13 1     7      0.00000      5.32420     18.21010      7.56170
   14 1     7      0.00000     20.44760      7.56170      7.56170
   15 1     7      0.00000      5.32420      7.56170     18.21010
   16 1     7      0.00000     20.44760     18.21010     18.21010
   17 1     7      0.00000     18.21010      5.32420     18.21010
   18 1     7      0.00000      7.56170     20.44760     18.21010
   19 1     7      0.00000      7.56170      5.32420      7.56170
   20 1     7      0.00000     18.21010     20.44760      7.56170
   21 1     7      0.00000     18.21010      5.32420      7.56170
   22 1     7      0.00000      7.56170     20.44760      7.56170
   23 1     7      0.00000     18.21010     20.44760     18.21010
   24 1     7      0.00000      7.56170      5.32420     18.21010
   25 1     7      0.00000     18.21010     18.21010      5.32420
   26 1     7      0.00000      7.56170      7.56170      5.32420
   27 1     7      0.00000      7.56170     18.21010     20.44760
   28 1     7      0.00000     18.21010      7.56170     20.44760
   29 1     7      0.00000     18.21010     18.21010     20.44760
   30 1     7      0.00000      7.56170      7.56170     20.44760
   31 1     7      0.00000     18.21010      7.56170      5.32420
   32 1     7      0.00000      7.56170     18.21010      5.32420
   33 1     4      0.00000     13.98172     19.99144      8.27996
   34 1     4      0.00000     11.79008     18.66626      4.60594
   35 1     4      0.00000     13.98172     18.66626      4.60594
   36 1     4      0.00000     11.79008      5.78036      8.27996
   37 1     4      0.00000     13.98172      5.78036      8.27996
   38 1     4      0.00000     13.98172      7.10554      4.60594
   39 1     4      0.00000     24.67598      7.10554      8.27996
   40 1     4      0.00000     24.67598     19.99144      4.60594
   41 1     4      0.00000     17.49184      7.10554      1.09582
   42 1     4      0.00000     17.49184     18.66626      1.09582
   43 1     4      0.00000      4.60594      5.78036      1.09582
   44 1     4      0.00000      4.60594     19.99144      1.09582
   45 1     4      0.00000      1.09582      7.10554      8.27996
   46 1     4      0.00000      1.09582     18.66626      8.27996
   47 1     4      0.00000      1.09582      7.10554     17.49184
   48 1     4      0.00000      4.63454      7.09523     14.03841
   49 1     4      0.00000      4.60594      7.10554     11.79008
   50 1     4      0.00000      8.27996      5.78036     11.79008
   51 1     4      0.00000      8.27996     19.99144     11.79008
   52 1     4      0.00000      8.27996     19.99144     13.98172
   53 1     4      0.00000      4.60594     18.66626     13.98172
   54 1     4      0.00000     11.79008      5.78036     17.49184
   55 1     4      0.00000     11.79008      7.10554     21.16586
   56 1     4      0.00000     13.98172      7.10554     21.16586
   57 1     4      0.00000     11.79008     19.99144     17.49184
   58 1     4      0.00000     13.98172     19.99144     17.49184
   59 1     4      0.00000     11.79008     18.66626     21.16586
   60 1     4      0.00000     21.16586     19.99144     24.67598
   61 1     4      0.00000     17.49184      7.10554     24.67598
   62 1     4      0.00000      8.27996     18.66626     24.67598
   63 1     4      0.00000      1.09582     18.66626     17.49184
   64 1     4      0.00000      4.60594      5.78036     24.67598
   65 1     4      0.00000     24.67598      5.78036     21.16586
   66 1     4      0.00000     24.67598     18.66626     17.49184
   67 1     4      0.00000     21.16586     18.66626     11.79008
   68 1     4      0.00000     17.49184     19.99144     11.79008
   69 1     4      0.00000     17.49184     19.99144     13.98172
   70 1     4      0.00000     21.16586      7.10554     13.98172
   71 1     4      0.00000     21.13726      7.09523     11.73339
   72 1     4      0.00000     17.49184      5.78036     13.98172
   73 1     4      0.00000      5.79067     11.73339     17.52044
   74 1     4      0.00000      5.78036     13.98172     17.49184
   75 1     4      0.00000      7.10554     11.79008     21.16586
   76 1     4      0.00000     19.99144     11.79008     17.49184
   77 1     4      0.00000     18.66626     11.79008     21.16586
   78 1     4      0.00000     18.66626     13.98172     21.16586
   79 1     4      0.00000     19.99144     13.98172      8.27996
   80 1     4      0.00000     19.98113     11.73339      8.25136
   81 1     4      0.00000     18.66626     13.98172      4.60594
   82 1     4      0.00000      5.79067     14.03841      8.25136
   83 1     4      0.00000      7.10554     13.98172      4.60594
   84 1     4      0.00000      7.10554     11.79008      4.60594
   85 1     4      0.00000      7.10554      1.09582      8.27996
   86 1     4      0.00000     18.66626      1.09582      8.27996
   87 1     4      0.00000      7.10554      1.09582     17.49184
   88 1     4      0.00000     19.99144      1.09582     21.16586
   89 1     4      0.00000      7.10554     24.67598     17.49184
   90 1     4      0.00000     18.66626     24.67598     17.49184
   91 1     4      0.00000     18.66626     24.67598      8.27996
   92 1     4      0.00000      5.78036     24.67598      4.60594
   93 1     4      0.00000      1.09582     19.99144      4.60594
   94 1     4      0.00000      1.09582      5.78036      4.60594
   95 1     4      0.00000      1.09582      5.78036     21.16586
   96 1     4      0.00000      5.78036      1.09582      4.60594
   97 1     4      0.00000     19.99144      1.09582      4.60594
   98 1     4      0.00000      5.78036     24.67598     21.16586
   99 1     4      0.00000     19.99144     24.67598     21.16586
  100 1     4      0.00000      1.09582     19.99144     21.16586
  101 1     4      0.00000      8.27996     18.66626      1.09582
  102 1     4      0.00000     17.49184     18.66626     24.67598
  103 1     4      0.00000      8.27996      7.10554     24.67598
  104 1     4      0.00000     21.16586      5.78036     24.67598
  105 1     3      0.00000      6.44295      6.44295      2.84985
  106 1     2      0.00000      6.44295      6.44295      1.41642
  107 1     3      0.00000      5.40847      6.06977      0.67754
  108 1     3      0.00000     19.32885     19.32885      2.84985
  109 1     2      0.00000     19.32885     19.32885      1.41642
  110 1     3      0.00000     20.36333     19.70203      0.67754
  111 1     3      0.00000     19.32885      6.44295     22.92195
  112 1     2      0.00000     19.32885      6.44295     24.35538
  113 1     3      0.00000     20.36333      6.06977     25.09426
  114 1     3      0.00000      6.44295     19.32885     22.92195
  115 1     2      0.00000      6.44295     19.32885     24.35538
  116 1     3      0.00000      5.40847     19.70203     25.09426
  117 1     3      0.00000      2.84985      6.44295      6.44295
  118 1     2      0.00000      1.41642      6.44295      6.44295
  119 1     3      0.00000      2.84985     19.32885     19.32885
  120 1     2      0.00000      1.41642     19.32885     19.32885
  121 1     3      0.00000     22.92195     19.32885      6.44295
  122 1     2      0.00000     24.35538     19.32885      6.44295
  123 1     3      0.00000     22.92195      6.44295     19.32885
  124 1     2      0.00000     24.35538      6.44295     19.32885
  125 1     3      0.00000      6.44295      2.84985      6.44295
  126 1     2      0.00000      6.44295      1.41642      6.44295
  127 1     3      0.00000      6.06977      0.67754      5.40847
  128 1     3      0.00000     19.32885      2.84985     19.32885
  129 1     2      0.00000     19.32885      1.41642     19.32885
  130 1     3      0.00000     19.70203      0.67754     20.36333
  131 1     3      0.00000      6.44295     22.92195     19.32885
  132 1     2      0.00000      6.44295     24.35538     19.32885
  133 1     3      0.00000      6.06977     25.09426     20.36333
  134 1     3      0.00000     19.32885     22.92195      6.44295
  135 1     2      0.00000     19.32885     24.35538      6.44295
  136 1     3      0.00000     19.70203     25.09426      5.40847
  137 1     3      0.00000      6.44295      6.44295     22.92195
  138 1     2      0.00000      6.44295      6.44295     24.35538
  139 1     3      0.00000     19.32885     19.32885     22.92195
  140 1     2      0.00000     19.32885     19.32885     24.35538
  141 1     3      0.00000      6.44295     19.32885      2.84985
  142 1     2      0.00000      6.44295     19.32885      1.41642
  143 1     3      0.00000     19.32885      6.44295      2.84985
  144 1     2      0.00000     19.32885      6.44295      1.41642
  145 1     3      0.00000      6.44295      2.84985     19.32885
  146 1     2      0.00000      6.44295      1.41642     19.32885
  147 1     3      0.00000     19.32885      2.84985      6.44295
  148 1     2      0.00000     19.32885      1.41642      6.44295
  149 1     3      0.00000     19.32885     22.92195     19.32885
  150 1     2      0.00000     19.32885     24.35538     19.32885
  151 1     3      0.00000      6.44295     22.92195      6.44295
  152 1     2      0.00000      6.44295     24.35538      6.44295
  153 1     3      0.00000      2.84985      6.44295     19.32885
  154 1     2      0.00000      1.41642      6.44295     19.32885
  155 1     3      0.00000      0.67754      6.06977     20.36333
  156 1     3      0.00000      2.84985     19.32885      6.44295
  157 1     2      0.00000      1.41642     19.32885      6.44295
  158 1     3      0.00000      0.67754     19.70203      5.40847
  159 1     3      0.00000     22.92195      6.44295      6.44295
  160 1     2      0.00000     24.35538      6.44295      6.44295
  161 1     3      0.00000     25.09426      6.06977      5.40847
  162 1     3      0.00000     22.92195     19.32885     19.32885
  163 1     2      0.00000     24.35538     19.32885     19.32885
  164 1     3      0.00000     25.09426     19.70203     20.36333
  165 1     3      0.00000     20.36333     19.70203     25.09426
  166 1     3      0.00000      5.40847      6.06977     25.09426
  167 1     3      0.00000      5.40847     19.70203      0.67754
  168 1     3      0.00000     20.36333      6.06977      0.67754
  169 1     3      0.00000     19.70203     25.09426     20.36333
  170 1     3      0.00000      6.06977     25.09426      5.40847
  171 1     3      0.00000     19.70203      0.67754      5.40847
  172 1     3      0.00000      6.06977      0.67754     20.36333
  173 1     3      0.00000     25.09426     19.70203      5.40847
  174 1     3      0.00000     25.09426      6.06977     20.36333
  175 1     3      0.00000      0.67754     19.70203     20.36333
  176 1     3      0.00000      0.67754      6.06977      5.40847
  177 1     3      0.00000      6.44295     19.32885     15.73575
  178 1     2      0.00000      6.44295     19.32885     14.30232
  179 1     3      0.00000      5.40847     18.95567     13.56344
  180 1     3      0.00000     19.32885      6.44295     15.73575
  181 1     2      0.00000     19.32885      6.44295     14.30232
  182 1     3      0.00000     20.36333      6.81613     13.56344
  183 1     3      0.00000     19.32885     19.32885     10.03605
  184 1     2      0.00000     19.32885     19.32885     11.46948
  185 1     3      0.00000     20.36333     18.95567     12.20836
  186 1     3      0.00000      6.44295      6.44295     10.03605
  187 1     2      0.00000      6.44295      6.44295     11.46948
  188 1     3      0.00000      5.40847      6.81613     12.20836
  189 1     3      0.00000      6.44295     15.73575     19.32885
  190 1     2      0.00000      6.44295     14.30232     19.32885
  191 1     3      0.00000      6.06977     13.56344     18.29437
  192 1     3      0.00000     19.32885     15.73575      6.44295
  193 1     2      0.00000     19.32885     14.30232      6.44295
  194 1     3      0.00000     19.70203     13.56344      7.47743
  195 1     3      0.00000      6.44295     10.03605      6.44295
  196 1     2      0.00000      6.44295     11.46948      6.44295
  197 1     3      0.00000      6.06977     12.20836      7.47743
  198 1     3      0.00000     19.32885     10.03605     19.32885
  199 1     2      0.00000     19.32885     11.46948     19.32885
  200 1     3      0.00000     19.70203     12.20836     18.29437
  201 1     3      0.00000      6.44295     19.32885     10.03605
  202 1     2      0.00000      6.44295     19.32885     11.46948
  203 1     3      0.00000     19.32885      6.44295     10.03605
  204 1     2      0.00000     19.32885      6.44295     11.46948
  205 1     3      0.00000      6.44295      6.44295     15.73575
  206 1     2      0.00000      6.44295      6.44295     14.30232
  207 1     3      0.00000     19.32885     19.32885     15.73575
  208 1     2      0.00000     19.32885     19.32885     14.30232
  209 1     3      0.00000      6.44295     15.73575      6.44295
  210 1     2      0.00000      6.44295     14.30232      6.44295
  211 1     3      0.00000     19.32885     15.73575     19.32885
  212 1     2      0.00000     19.32885     14.30232     19.32885
  213 1     3      0.00000     19.32885     10.03605      6.44295
  214 1     2      0.00000     19.32885     11.46948      6.44295
  215 1     3      0.00000      6.44295     10.03605     19.32885
  216 1     2      0.00000      6.44295     11.46948     19.32885
  217 1     3      0.00000      0.67754     18.95567      7.47743
  218 1     3      0.00000      0.67754      6.81613     18.29437
  219 1     3      0.00000     25.09426     18.95567     18.29437
  220 1     3      0.00000     25.09426      6.81613      7.47743
  221 1     3      0.00000     20.36333      6.81613     12.20836
  222 1     3      0.00000      5.40847     18.95567     12.20836
  223 1     3      0.00000      5.40847      6.81613     13.56344
  224 1     3      0.00000     20.36333     18.95567     13.56344
  225 1     3      0.00000     19.70203     12.20836      7.47743
  226 1     3      0.00000      6.06977     12.20836     18.29437
  227 1     3      0.00000     19.70203     13.56344     18.29437
  228 1     3      0.00000      6.06977     13.56344      7.47743
  229 1     3      0.00000     25.09426      6.81613     18.29437
  230 1     3      0.00000     25.09426     18.95567      7.47743
  231 1     3      0.00000      0.67754      6.81613      7.47743
  232 1     3      0.00000      0.67754     18.95567     18.29437
  233 1     3      0.00000     18.29437      6.06977     13.56344
  234 1     3      0.00000      7.47743     19.70203     13.56344
  235 1     3      0.00000      7.47743      6.06977     12.20836
  236 1     3      0.00000     18.29437     19.70203     12.20836
  237 1     3      0.00000     15.73575      6.44295     19.32885
  238 1     2      0.00000     14.30232      6.44295     19.32885
  239 1     3      0.00000     15.73575     19.32885      6.44295
  240 1     2      0.00000     14.30232     19.32885      6.44295
  241 1     3      0.00000     10.03605     19.32885     19.32885
  242 1     2      0.00000     11.46948     19.32885     19.32885
  243 1     3      0.00000     10.03605      6.44295      6.44295
  244 1     2      0.00000     11.46948      6.44295      6.44295
  245 1     3      0.00000     18.95567      0.67754     18.29437
  246 1     3      0.00000      6.81613      0.67754      7.47743
  247 1     3      0.00000     18.95567     25.09426      7.47743
  248 1     3      0.00000      6.81613     25.09426     18.29437
  249 1     3      0.00000     15.73575      6.44295      6.44295
  250 1     2      0.00000     14.30232      6.44295      6.44295
  251 1     3      0.00000     13.56344      6.06977      7.47743
  252 1     3      0.00000     15.73575     19.32885     19.32885
  253 1     2      0.00000     14.30232     19.32885     19.32885
  254 1     3      0.00000     13.56344     19.70203     18.29437
  255 1     3      0.00000     10.03605      6.44295     19.32885
  256 1     2      0.00000     11.46948      6.44295     19.32885
  257 1     3      0.00000     12.20836      6.06977     18.29437
  258 1     3      0.00000     10.03605     19.32885      6.44295
  259 1     2      0.00000     11.46948     19.32885      6.44295
  260 1     3      0.00000     12.20836     19.70203      7.47743
  261 1     3      0.00000      7.47743     19.70203     12.20836
  262 1     3      0.00000     18.29437      6.06977     12.20836
  263 1     3      0.00000     18.29437     19.70203     13.56344
  264 1     3      0.00000      7.47743      6.06977     13.56344
  265 1     3      0.00000      6.81613     25.09426      7.47743
  266 1     3      0.00000     18.95567     25.09426     18.29437
  267 1     3      0.00000      6.81613      0.67754     18.29437
  268 1     3      0.00000     18.95567      0.67754      7.47743
  269 1     3      0.00000     12.20836     19.70203     18.29437
  270 1     3      0.00000     12.20836      6.06977      7.47743
  271 1     3      0.00000     13.56344     19.70203      7.47743
  272 1     3      0.00000     13.56344      6.06977     18.29437
  273 1     3      0.00000     18.29437     18.95567      0.67754
  274 1     3      0.00000      7.47743      6.81613      0.67754
  275 1     3      0.00000      7.47743     18.95567     25.09426
  276 1     3      0.00000     18.29437      6.81613     25.09426
  277 1     3      0.00000     18.95567     13.56344      5.40847
  278 1     3      0.00000      6.81613     13.56344     20.36333
  279 1     3      0.00000     18.95567     12.20836     20.36333
  280 1     3      0.00000      6.81613     12.20836      5.40847
  281 1     3      0.00000     13.56344     18.95567     20.36333
  282 1     3      0.00000     13.56344      6.81613      5.40847
  283 1     3      0.00000     12.20836     18.95567      5.40847
  284 1     3      0.00000     12.20836      6.81613     20.36333
  285 1     3      0.00000      7.47743      6.81613     25.09426
  286 1     3      0.00000     18.29437     18.95567     25.09426
  287 1     3      0.00000     18.29437      6.81613      0.67754
  288 1     3      0.00000      7.47743     18.95567      0.67754
  289 1     3      0.00000      6.81613     12.20836     20.36333
  290 1     3      0.00000     18.95567     12.20836      5.40847
  291 1     3      0.00000      6.81613     13.56344      5.40847
  292 1     3      0.00000     18.95567     13.56344     20.36333
  293 1     3      0.00000     12.20836      6.81613      5.40847
  294 1     3      0.00000     12.20836     18.95567     20.36333
  295 1     3      0.00000     13.56344      6.81613     20.36333
  296 1     3      0.00000     13.56344     18.95567      5.40847
  297 1     1      0.00000     22.25575     20.25122      1.33034
  298 1     1      0.00000      3.51605     20.25122     24.44146
  299 1     1      0.00000     20.25122     24.44146      3.51605
  300 1     1      0.00000     24.44146      5.52058      3.51605
  301 1     1      0.00000     24.44146     20.25122     22.25575
  302 1     1      0.00000     22.25575      5.52058      1.33034
  303 1     1      0.00000      5.52058      1.33034     22.25575
  304 1     1      0.00000      5.52058     11.55556      9.36985
  305 1     1      0.00000      3.51605     18.40648     11.55556
  306 1     1      0.00000     22.25575     18.40648     14.21624
  307 1     1      0.00000     20.25122     14.21624     16.40195
  308 1     1      0.00000     24.44146      7.36532     16.40195
  309 1     1      0.00000     24.44146     18.40648      9.36985
  310 1     1      0.00000     18.40648      1.33034     16.40195
  311 1     1      0.00000     11.55556     20.25122      9.36985
  312 1     1      0.00000     16.40195      5.52058     11.55556
  313 1     1      0.00000      9.36985      5.52058     14.21624
  314 1     1      0.00000      7.36532     24.44146      9.36985
  315 1     1      0.00000     14.21624      5.52058     16.40195
  316 1     1      0.00000      9.36985      7.36532      1.33034
  317 1     1      0.00000      7.36532     14.21624     22.25575
  318 1     1      0.00000     14.21624     18.40648     22.25575
  319 1     1      0.00000     18.40648     11.55556      3.51605
  320 1     1      0.00000     11.55556      7.36532      3.51605
  321 1     6      0.00000      6.44295      6.44295      6.44295
  322 1     5      0.00000      5.66877      5.66877      3.44904
  323 1     6      0.00000     19.32885     19.32885      6.44295
  324 1     5      0.00000     20.10303     20.10303      3.44904
  325 1     6      0.00000     19.32885      6.44295     19.32885
  326 1     5      0.00000     20.10303      5.66877     22.32302
  327 1     6      0.00000      6.44295     19.32885     19.32885
  328 1     5      0.00000      5.66877     20.10303     22.32302
  329 1     5      0.00000      3.44904      5.66877      5.66877
  330 1     5      0.00000      3.44904     20.10303     20.10303
  331 1     5      0.00000     22.32302     20.10303      5.66877
  332 1     5      0.00000     22.32302      5.66877     20.10303
  333 1     5      0.00000      5.66877      3.44904      5.66877
  334 1     5      0.00000     20.10303      3.44904     20.10303
  335 1     5      0.00000      5.66877     22.32302     20.10303
  336 1     5      0.00000     20.10303     22.32302      5.66877
  337 1     6      0.00000      6.44295      6.44295     19.32885
  338 1     5      0.00000      5.66877      5.66877     22.32302
  339 1     6      0.00000     19.32885     19.32885     19.32885
  340 1     5      0.00000     20.10303     20.10303     22.32302
  341 1     6      0.00000      6.44295     19.32885      6.44295
  342 1     5      0.00000      5.66877     20.10303      3.44904
  343 1     6      0.00000     19.32885      6.44295      6.44295
  344 1     5      0.00000     20.10303      5.66877      3.44904
  345 1     5      0.00000      5.66877      3.44904     20.10303
  346 1     5      0.00000     20.10303      3.44904      5.66877
  347 1     5      0.00000     20.10303     22.32302     20.10303
  348 1     5      0.00000      5.66877     22.32302      5.66877
  349 1     5      0.00000      3.44904      5.66877     20.10303
  350 1     5      0.00000      3.44904     20.10303      5.66877
  351 1     5      0.00000     22.32302      5.66877      5.66877
  352 1     5      0.00000     22.32302     20.10303     20.10303
  353 1     5      0.00000      5.66877     18.55467     16.33468
  354 1     5      0.00000     20.10303      7.21713     16.33468
  355 1     5      0.00000     20.10303     18.55467      9.43712
  356 1     5      0.00000      5.66877      7.21713      9.43686
  357 1     5      0.00000      3.44904     18.55467     18.55467
  358 1     5      0.00000      3.44904      7.21713      7.21713
  359 1     5      0.00000     22.32302      7.21713     18.55467
  360 1     5      0.00000     22.32302     18.55467      7.21713
  361 1     5      0.00000      5.66877     16.33494     18.55467
  362 1     5      0.00000     20.10303     16.33494      7.21713
  363 1     5      0.00000      5.66877      9.43712      7.21713
  364 1     5      0.00000     20.10303      9.43712     18.55467
  365 1     5      0.00000      5.66877     18.55467      9.43686
  366 1     5      0.00000     20.10303      7.21713      9.43686
  367 1     5      0.00000      5.66877      7.21713     16.33494
  368 1     5      0.00000     20.10303     18.55467     16.33468
  369 1     5      0.00000      5.66877     16.33494      7.21713
  370 1     5      0.00000     20.10303     16.33494     18.55467
  371 1     5      0.00000     20.10303      9.43712      7.21713
  372 1     5      0.00000      5.66877      9.43712     18.55467
  373 1     5      0.00000      3.44904     18.55467      7.21713
  374 1     5      0.00000      3.44904      7.21713     18.55467
  375 1     5      0.00000     22.32302     18.55467     18.55467
  376 1     5      0.00000     22.32302      7.21713      7.21713
  377 1     5      0.00000     18.55467      5.66877     16.33468
  378 1     5      0.00000      7.21713     20.10303     16.33468
  379 1     5      0.00000      7.21713      5.66877      9.43686
  380 1     5      0.00000     18.55467     20.10303      9.43712
  381 1     5      0.00000     16.33494      5.66877     18.55467
  382 1     5      0.00000     16.33494     20.10303      7.21713
  383 1     5      0.00000      9.43712     20.10303     18.55467
  384 1     5      0.00000      9.43712      5.66877      7.21713
  385 1     5      0.00000     18.55467      3.44878     18.55467
  386 1     5      0.00000      7.21713      3.44904      7.21713
  387 1     5      0.00000     18.55467     22.32302      7.21713
  388 1     5      0.00000      7.21713     22.32302     18.55467
  389 1     5      0.00000     18.55467      5.66877      9.43686
  390 1     5      0.00000      7.21713     20.10303      9.43686
  391 1     5      0.00000     18.55467     20.10303     16.33468
  392 1     5      0.00000      7.21713      5.66877     16.33494
  393 1     5      0.00000     18.55467      3.44878      7.21713
  394 1     5      0.00000      7.21713      3.44904     18.55467
  395 1     5      0.00000      7.21713     22.32302      7.21713
  396 1     5      0.00000     18.55467     22.32302     18.55467
  397 1     5      0.00000     16.33494      5.66877      7.21713
  398 1     5      0.00000     16.33494     20.10303     18.55467
  399 1     5      0.00000      9.43712      5.66877     18.55467
  400 1     5      0.00000      9.43712     20.10303      7.21713
  401 1     5      0.00000     18.55467     18.55467      3.44904
  402 1     5      0.00000      7.21713      7.21713      3.44904
  403 1     5      0.00000      7.21713     18.55467     22.32302
  404 1     5      0.00000     18.55467      7.21713     22.32302
  405 1     5      0.00000     16.33494     18.55467      5.66877
  406 1     5      0.00000     16.33494      7.21713     20.10303
  407 1     5      0.00000      9.43712      7.21713      5.66877
  408 1     5      0.00000      9.43712     18.55467     20.10303