Created by Ryther's code on 2024-12-06 19:46:21.897462

    11152 atoms
    14144 bonds
    28288 angles
    26112 dihedrals
    4896 impropers

    8 atom types
    12 bond types
    26 angle types
    5 dihedral types
    3 improper types

0.00000000 72.9057 xlo xhi
0.00000000 72.9057 ylo yhi
0.00000000 72.9057 zlo zhi
0.0 0.0 0.0 xy xz yz 

Masses 

    1    12.0107
    2    12.0107
    3    51.9961
    4    51.9961
    5 18.9984032
    6    1.00794
    7    15.9994
    8    15.9994

Pair Coeffs

    1       0.10500      3.43085 # C_2 C_2
    2       0.10500      3.43085 # C_R C_R
    3       0.01500      2.69319 # Cr5 Cr5
    4       0.01500      2.69319 # Cr6+3 Cr6+3
    5       0.05000      2.99698 # F_ F_
    6       0.04400      2.57113 # H_ H_
    7       0.06000      3.11815 # O_2_M O_2_M
    8       0.06000      3.11815 # O_3_f O_3_f

Bond Coeffs

    1     264.91459      1.92203 # Cr5 O_3_f bond order=0.5
    2     264.93763      1.92203 # Cr5 O_2_M bond order=0.5
    3     215.71831      2.05832 # Cr6+3 O_2_M bond order=0.5
    4     167.24248      2.03963 # Cr6+3 F_ bond order=0.5
    5     215.69956      2.05832 # Cr6+3 O_3_f bond order=0.5
    6     357.44038      1.08142 # C_R H_ bond order=1.0
    7     354.48390      1.08442 # C_2 H_ bond order=1.0
    8     389.26171      1.46100 # C_2 C_R bond order=1.0
    9     386.87361      1.46400 # C_2 C_2 bond order=1.0
    10    462.65505      1.37926 # C_R C_R bond order=1.5
    11    391.66951      1.45800 # C_R C_R bond order=1.0
    12    714.55744      1.26901 # C_R O_2_M bond order=1.5

Angle Coeffs

    1  cosine/periodic        131.18915            1            4 # O_2_M Cr5 O_3_f
    2  cosine/periodic        131.20056            1            4 # O_2_M Cr5 O_2_M
    3  cosine/periodic        106.82652            1            4 # O_2_M Cr6+3 O_2_M
    4  cosine/periodic         81.68635            1            4 # F_ Cr6+3 O_2_M
    5  cosine/periodic        106.81723            1            4 # O_2_M Cr6+3 O_3_f
    6  cosine/periodic         81.67925            1            4 # F_ Cr6+3 O_3_f
    7  cosine/periodic         51.27132           -1            3 # C_R C_2 H_
    8  cosine/periodic         51.07071           -1            3 # C_2 C_2 H_
    9  cosine/periodic         93.35385           -1            3 # C_2 C_2 C_R
    10 cosine/periodic        101.85214           -1            3 # C_2 C_R C_R
    11 cosine/periodic         93.93070           -1            3 # C_2 C_R C_R
    12 cosine/periodic        102.18328           -1            3 # C_R C_R C_R
    13 cosine/periodic        137.71425           -1            3 # C_R C_R O_2_M
    14 cosine/periodic        206.77843           -1            3 # O_2_M C_R O_2_M
    15 cosine/periodic         57.28902           -1            3 # C_R C_R H_
    16 cosine/periodic        111.29751           -1            3 # C_R C_R C_R
    17 cosine/periodic         51.62857           -1            3 # C_R C_R H_
    18 cosine/periodic         94.22104           -1            3 # C_R C_R C_R
    19 cosine/periodic         93.06733           -1            3 # C_2 C_2 C_2
    20 cosine/periodic        137.23527           -1            3 # C_2 C_R O_2_M
    21 cosine/periodic         93.64181           -1            3 # C_R C_2 C_R
    22 cosine/periodic         87.71691           -1            3 # C_R O_2_M Cr5
    23 cosine/periodic         75.94194           -1            3 # C_R O_2_M Cr6+3
    24 fourier                173.74556      0.34375      0.37500      0.28125 # Cr5 O_3_f Cr5
    25 fourier                156.15885      0.34375      0.37500      0.28125 # Cr5 O_3_f Cr6+3
    26 fourier                141.46763      0.34375      0.37500      0.28125 # Cr6+3 O_3_f Cr6+3

Dihedral Coeffs

    1       1.25000           -1            2 # X C_2 C_R X bond order=1.0
    2       1.25000           -1            2 # X C_2 C_2 X bond order=1.0
    3       3.36856           -1            2 # X C_R C_R X bond order=1.5
    4       1.25000           -1            2 # X C_R C_R X bond order=1.0
    5       6.73711           -1            2 # X C_R O_2_M X bond order=1.5

Improper Coeffs

    1       2.00000      1.00000     -1.00000      0.00000            1 # C_2 X X X O_2 present=False
    2       2.00000      1.00000     -1.00000      0.00000            1 # C_R X X X O_2 present=False
    3      16.66667      1.00000     -1.00000      0.00000            1 # C_R X X X O_2 present=True

Atoms

    1 1     3      0.00000     53.03161      3.99520     33.05537
    2 1     3      0.00000     16.57883     40.44808     33.05537
    3 1     3      0.00000     16.57883      3.99520     69.50829
    4 1     3      0.00000     53.03161     40.44808     69.50829
    5 1     3      0.00000     45.95254      0.99150     24.78787
    6 1     3      0.00000      9.49961     37.44437     24.78787
    7 1     3      0.00000      9.49961      0.99150     61.24079
    8 1     3      0.00000     45.95254     37.44437     61.24079
    9 1     3      0.00000     38.10052     14.23119     33.05537
   10 1     3      0.00000      1.64770     50.68397     33.05537
   11 1     3      0.00000      1.64770     14.23119     69.50829
   12 1     3      0.00000     38.10052     50.68397     69.50829
   13 1     3      0.00000     45.17974     17.23491     24.78787
   14 1     3      0.00000      8.72681     53.68783     24.78787
   15 1     3      0.00000      8.72681     17.23491     61.24079
   16 1     3      0.00000     45.17974     53.68783     61.24079
   17 1     3      0.00000      1.64770      3.99520     21.62383
   18 1     3      0.00000     38.10052     40.44808     21.62383
   19 1     3      0.00000     38.10052      3.99520     58.07668
   20 1     3      0.00000      1.64770     40.44808     58.07668
   21 1     3      0.00000      8.72681      0.99150     29.89126
   22 1     3      0.00000     45.17974     37.44437     29.89126
   23 1     3      0.00000     45.17974      0.99150     66.34419
   24 1     3      0.00000      8.72681     37.44437     66.34419
   25 1     3      0.00000     16.57883     14.23119     21.62383
   26 1     3      0.00000     53.03161     50.68397     21.62383
   27 1     3      0.00000     53.03161     14.23119     58.07668
   28 1     3      0.00000     16.57883     50.68397     58.07668
   29 1     3      0.00000      9.49961     17.23491     29.89126
   30 1     3      0.00000     45.95254     53.68783     29.89126
   31 1     3      0.00000     45.95254     17.23491     66.34419
   32 1     3      0.00000      9.49961     53.68783     66.34419
   33 1     4      0.00000     69.50829     16.57883      3.99520
   34 1     4      0.00000     33.05537     53.03161      3.99520
   35 1     4      0.00000     33.05537     16.57883     40.44808
   36 1     4      0.00000     69.50829     53.03161     40.44808
   37 1     3      0.00000     61.24079      9.49961      0.99150
   38 1     3      0.00000     24.78787     45.95254      0.99150
   39 1     3      0.00000     24.78787      9.49961     37.44437
   40 1     3      0.00000     61.24079     45.95254     37.44437
   41 1     3      0.00000     69.50829      1.64770     14.23119
   42 1     3      0.00000     33.05537     38.10052     14.23119
   43 1     3      0.00000     33.05537      1.64770     50.68397
   44 1     3      0.00000     69.50829     38.10052     50.68397
   45 1     3      0.00000     61.24079      8.72681     17.23491
   46 1     3      0.00000     24.78787     45.17974     17.23491
   47 1     3      0.00000     24.78787      8.72681     53.68783
   48 1     3      0.00000     61.24079     45.17974     53.68783
   49 1     3      0.00000     21.62383      1.64770      3.99520
   50 1     3      0.00000     58.07668     38.10052      3.99520
   51 1     3      0.00000     58.07668      1.64770     40.44808
   52 1     3      0.00000     21.62383     38.10052     40.44808
   53 1     3      0.00000     29.89126      8.72681      0.99150
   54 1     3      0.00000     66.34419     45.17974      0.99150
   55 1     3      0.00000     66.34419      8.72681     37.44437
   56 1     3      0.00000     29.89126     45.17974     37.44437
   57 1     3      0.00000     21.62383     16.57883     14.23119
   58 1     3      0.00000     58.07668     53.03161     14.23119
   59 1     3      0.00000     58.07668     16.57883     50.68397
   60 1     3      0.00000     21.62383     53.03161     50.68397
   61 1     3      0.00000     29.89126      9.49961     17.23491
   62 1     3      0.00000     66.34419     45.95254     17.23491
   63 1     3      0.00000     66.34419      9.49961     53.68783
   64 1     3      0.00000     29.89126     45.95254     53.68783
   65 1     4      0.00000     40.44808     33.05537     16.57883
   66 1     4      0.00000      3.99520     69.50829     16.57883
   67 1     4      0.00000      3.99520     33.05537     53.03161
   68 1     4      0.00000     40.44808     69.50829     53.03161
   69 1     3      0.00000     37.44437     24.78787      9.49961
   70 1     3      0.00000      0.99150     61.24079      9.49961
   71 1     3      0.00000      0.99150     24.78787     45.95254
   72 1     3      0.00000     37.44437     61.24079     45.95254
   73 1     3      0.00000     50.68397     33.05537      1.64770
   74 1     3      0.00000     14.23119     69.50829      1.64770
   75 1     3      0.00000     14.23119     33.05537     38.10052
   76 1     3      0.00000     50.68397     69.50829     38.10052
   77 1     4      0.00000     53.68783     24.78787      8.72681
   78 1     4      0.00000     17.23491     61.24079      8.72681
   79 1     4      0.00000     17.23491     24.78787     45.17974
   80 1     4      0.00000     53.68783     61.24079     45.17974
   81 1     4      0.00000      3.99520     21.62383      1.64770
   82 1     4      0.00000     40.44808     58.07668      1.64770
   83 1     4      0.00000     40.44808     21.62383     38.10052
   84 1     4      0.00000      3.99520     58.07668     38.10052
   85 1     3      0.00000      0.99150     29.89126      8.72681
   86 1     3      0.00000     37.44437     66.34419      8.72681
   87 1     3      0.00000     37.44437     29.89126     45.17974
   88 1     3      0.00000      0.99150     66.34419     45.17974
   89 1     3      0.00000     14.23119     21.62383     16.57883
   90 1     3      0.00000     50.68397     58.07668     16.57883
   91 1     3      0.00000     50.68397     21.62383     53.03161
   92 1     3      0.00000     14.23119     58.07668     53.03161
   93 1     3      0.00000     17.23491     29.89126      9.49961
   94 1     3      0.00000     53.68783     66.34419      9.49961
   95 1     3      0.00000     53.68783     29.89126     45.95254
   96 1     3      0.00000     17.23491     66.34419     45.95254
   97 1     4      0.00000     22.22173     34.80518      3.39740
   98 1     4      0.00000     58.67451     71.25803      3.39740
   99 1     4      0.00000     58.67451     34.80518     39.85033
  100 1     4      0.00000     22.22173     71.25803     39.85033
  101 1     3      0.00000     19.21787     27.72596     11.66491
  102 1     3      0.00000     55.67079     64.17889     11.66491
  103 1     3      0.00000     55.67079     27.72596     48.11783
  104 1     3      0.00000     19.21787     64.17889     48.11783
  105 1     3      0.00000     32.45762     19.87409      3.39740
  106 1     3      0.00000     68.91047     56.32687      3.39740
  107 1     3      0.00000     68.91047     19.87409     39.85033
  108 1     3      0.00000     32.45762     56.32687     39.85033
  109 1     3      0.00000     35.46133     26.95316     11.66491
  110 1     3      0.00000     71.91418     63.40609     11.66491
  111 1     3      0.00000     71.91418     26.95316     48.11783
  112 1     3      0.00000     35.46133     63.40609     48.11783
  113 1     4      0.00000     58.67451     19.87409     14.82902
  114 1     4      0.00000     22.22173     56.32687     14.82902
  115 1     4      0.00000     22.22173     19.87409     51.28187
  116 1     4      0.00000     58.67451     56.32687     51.28187
  117 1     3      0.00000     55.67079     26.95316      6.56150
  118 1     3      0.00000     19.21787     63.40609      6.56150
  119 1     3      0.00000     19.21787     26.95316     43.01444
  120 1     3      0.00000     55.67079     63.40609     43.01444
  121 1     4      0.00000     68.91047     34.80518     14.82902
  122 1     4      0.00000     32.45762     71.25803     14.82902
  123 1     4      0.00000     32.45762     34.80518     51.28187
  124 1     4      0.00000     68.91047     71.25803     51.28187
  125 1     4      0.00000     71.91418     27.72596      6.56150
  126 1     4      0.00000     35.46133     64.17889      6.56150
  127 1     4      0.00000     35.46133     27.72596     43.01444
  128 1     4      0.00000     71.91418     64.17889     43.01444
  129 1     3      0.00000     71.25803     14.82902     32.45762
  130 1     3      0.00000     34.80518     51.28187     32.45762
  131 1     3      0.00000     34.80518     14.82902     68.91047
  132 1     3      0.00000     71.25803     51.28187     68.91047
  133 1     4      0.00000     64.17889      6.56150     35.46133
  134 1     4      0.00000     27.72596     43.01444     35.46133
  135 1     4      0.00000     27.72596      6.56150     71.91418
  136 1     4      0.00000     64.17889     43.01444     71.91418
  137 1     3      0.00000     56.32687     14.82902     22.22173
  138 1     3      0.00000     19.87409     51.28187     22.22173
  139 1     3      0.00000     19.87409     14.82902     58.67451
  140 1     3      0.00000     56.32687     51.28187     58.67451
  141 1     3      0.00000     63.40609      6.56150     19.21787
  142 1     3      0.00000     26.95316     43.01444     19.21787
  143 1     3      0.00000     26.95316      6.56150     55.67079
  144 1     3      0.00000     63.40609     43.01444     55.67079
  145 1     4      0.00000     19.87409      3.39740     32.45762
  146 1     4      0.00000     56.32687     39.85033     32.45762
  147 1     4      0.00000     56.32687      3.39740     68.91047
  148 1     4      0.00000     19.87409     39.85033     68.91047
  149 1     4      0.00000     26.95316     11.66491     35.46133
  150 1     4      0.00000     63.40609     48.11783     35.46133
  151 1     4      0.00000     63.40609     11.66491     71.91418
  152 1     4      0.00000     26.95316     48.11783     71.91418
  153 1     3      0.00000     34.80518      3.39740     22.22173
  154 1     3      0.00000     71.25803     39.85033     22.22173
  155 1     3      0.00000     71.25803      3.39740     58.67451
  156 1     3      0.00000     34.80518     39.85033     58.67451
  157 1     3      0.00000     27.72596     11.66491     19.21787
  158 1     3      0.00000     64.17889     48.11783     19.21787
  159 1     3      0.00000     64.17889     11.66491     55.67079
  160 1     3      0.00000     27.72596     48.11783     55.67079
  161 1     3      0.00000     51.28187     22.22173     19.87409
  162 1     3      0.00000     14.82902     58.67451     19.87409
  163 1     3      0.00000     14.82902     22.22173     56.32687
  164 1     3      0.00000     51.28187     58.67451     56.32687
  165 1     3      0.00000     43.01444     19.21787     26.95316
  166 1     3      0.00000      6.56150     55.67079     26.95316
  167 1     3      0.00000      6.56150     19.21787     63.40609
  168 1     3      0.00000     43.01444     55.67079     63.40609
  169 1     4      0.00000     51.28187     32.45762     34.80518
  170 1     4      0.00000     14.82902     68.91047     34.80518
  171 1     4      0.00000     14.82902     32.45762     71.25803
  172 1     4      0.00000     51.28187     68.91047     71.25803
  173 1     4      0.00000     43.01444     35.46133     27.72596
  174 1     4      0.00000      6.56150     71.91418     27.72596
  175 1     4      0.00000      6.56150     35.46133     64.17889
  176 1     4      0.00000     43.01444     71.91418     64.17889
  177 1     4      0.00000      3.39740     22.22173     34.80518
  178 1     4      0.00000     39.85033     58.67451     34.80518
  179 1     4      0.00000     39.85033     22.22173     71.25803
  180 1     4      0.00000      3.39740     58.67451     71.25803
  181 1     3      0.00000     11.66491     19.21787     27.72596
  182 1     3      0.00000     48.11783     55.67079     27.72596
  183 1     3      0.00000     48.11783     19.21787     64.17889
  184 1     3      0.00000     11.66491     55.67079     64.17889
  185 1     3      0.00000      3.39740     32.45762     19.87409
  186 1     3      0.00000     39.85033     68.91047     19.87409
  187 1     3      0.00000     39.85033     32.45762     56.32687
  188 1     3      0.00000      3.39740     68.91047     56.32687
  189 1     3      0.00000     11.66491     35.46133     26.95316
  190 1     3      0.00000     48.11783     71.91418     26.95316
  191 1     3      0.00000     48.11783     35.46133     63.40609
  192 1     3      0.00000     11.66491     71.91418     63.40609
  193 1     3      0.00000     19.87409     32.45762      3.39740
  194 1     3      0.00000     56.32687     68.91047      3.39740
  195 1     3      0.00000     56.32687     32.45762     39.85033
  196 1     3      0.00000     19.87409     68.91047     39.85033
  197 1     4      0.00000     26.95316     35.46133     11.66491
  198 1     4      0.00000     63.40609     71.91418     11.66491
  199 1     4      0.00000     63.40609     35.46133     48.11783
  200 1     4      0.00000     26.95316     71.91418     48.11783
  201 1     3      0.00000     34.80518     22.22173      3.39740
  202 1     3      0.00000     71.25803     58.67451      3.39740
  203 1     3      0.00000     71.25803     22.22173     39.85033
  204 1     3      0.00000     34.80518     58.67451     39.85033
  205 1     4      0.00000     27.72596     19.21787     11.66491
  206 1     4      0.00000     64.17889     55.67079     11.66491
  207 1     4      0.00000     64.17889     19.21787     48.11783
  208 1     4      0.00000     27.72596     55.67079     48.11783
  209 1     3      0.00000     71.25803     32.45762     14.82902
  210 1     3      0.00000     34.80518     68.91047     14.82902
  211 1     3      0.00000     34.80518     32.45762     51.28187
  212 1     3      0.00000     71.25803     68.91047     51.28187
  213 1     3      0.00000     64.17889     35.46133      6.56150
  214 1     3      0.00000     27.72596     71.91418      6.56150
  215 1     3      0.00000     27.72596     35.46133     43.01444
  216 1     3      0.00000     64.17889     71.91418     43.01444
  217 1     3      0.00000     56.32687     22.22173     14.82902
  218 1     3      0.00000     19.87409     58.67451     14.82902
  219 1     3      0.00000     19.87409     22.22173     51.28187
  220 1     3      0.00000     56.32687     58.67451     51.28187
  221 1     3      0.00000     63.40609     19.21787      6.56150
  222 1     3      0.00000     26.95316     55.67079      6.56150
  223 1     3      0.00000     26.95316     19.21787     43.01444
  224 1     3      0.00000     63.40609     55.67079     43.01444
  225 1     3      0.00000      3.39740     19.87409     32.45762
  226 1     3      0.00000     39.85033     56.32687     32.45762
  227 1     3      0.00000     39.85033     19.87409     68.91047
  228 1     3      0.00000      3.39740     56.32687     68.91047
  229 1     3      0.00000     11.66491     26.95316     35.46133
  230 1     3      0.00000     48.11783     63.40609     35.46133
  231 1     3      0.00000     48.11783     26.95316     71.91418
  232 1     3      0.00000     11.66491     63.40609     71.91418
  233 1     4      0.00000      3.39740     34.80518     22.22173
  234 1     4      0.00000     39.85033     71.25803     22.22173
  235 1     4      0.00000     39.85033     34.80518     58.67451
  236 1     4      0.00000      3.39740     71.25803     58.67451
  237 1     4      0.00000     11.66491     27.72596     19.21787
  238 1     4      0.00000     48.11783     64.17889     19.21787
  239 1     4      0.00000     48.11783     27.72596     55.67079
  240 1     4      0.00000     11.66491     64.17889     55.67079
  241 1     3      0.00000     51.28187     34.80518     32.45762
  242 1     3      0.00000     14.82902     71.25803     32.45762
  243 1     3      0.00000     14.82902     34.80518     68.91047
  244 1     3      0.00000     51.28187     71.25803     68.91047
  245 1     3      0.00000     43.01444     27.72596     35.46133
  246 1     3      0.00000      6.56150     64.17889     35.46133
  247 1     3      0.00000      6.56150     27.72596     71.91418
  248 1     3      0.00000     43.01444     64.17889     71.91418
  249 1     3      0.00000     51.28187     19.87409     22.22173
  250 1     3      0.00000     14.82902     56.32687     22.22173
  251 1     3      0.00000     14.82902     19.87409     58.67451
  252 1     3      0.00000     51.28187     56.32687     58.67451
  253 1     3      0.00000     43.01444     26.95316     19.21787
  254 1     3      0.00000      6.56150     63.40609     19.21787
  255 1     3      0.00000      6.56150     26.95316     55.67079
  256 1     3      0.00000     43.01444     63.40609     55.67079
  257 1     3      0.00000     32.45762      3.39740     19.87409
  258 1     3      0.00000     68.91047     39.85033     19.87409
  259 1     3      0.00000     68.91047      3.39740     56.32687
  260 1     3      0.00000     32.45762     39.85033     56.32687
  261 1     4      0.00000     35.46133     11.66491     26.95316
  262 1     4      0.00000     71.91418     48.11783     26.95316
  263 1     4      0.00000     71.91418     11.66491     63.40609
  264 1     4      0.00000     35.46133     48.11783     63.40609
  265 1     3      0.00000     22.22173      3.39740     34.80518
  266 1     3      0.00000     58.67451     39.85033     34.80518
  267 1     3      0.00000     58.67451      3.39740     71.25803
  268 1     3      0.00000     22.22173     39.85033     71.25803
  269 1     3      0.00000     19.21787     11.66491     27.72596
  270 1     3      0.00000     55.67079     48.11783     27.72596
  271 1     3      0.00000     55.67079     11.66491     64.17889
  272 1     3      0.00000     19.21787     48.11783     64.17889
  273 1     4      0.00000     68.91047     14.82902     34.80518
  274 1     4      0.00000     32.45762     51.28187     34.80518
  275 1     4      0.00000     32.45762     14.82902     71.25803
  276 1     4      0.00000     68.91047     51.28187     71.25803
  277 1     3      0.00000     71.91418      6.56150     27.72596
  278 1     3      0.00000     35.46133     43.01444     27.72596
  279 1     3      0.00000     35.46133      6.56150     64.17889
  280 1     3      0.00000     71.91418     43.01444     64.17889
  281 1     3      0.00000     58.67451     14.82902     19.87409
  282 1     3      0.00000     22.22173     51.28187     19.87409
  283 1     3      0.00000     22.22173     14.82902     56.32687
  284 1     3      0.00000     58.67451     51.28187     56.32687
  285 1     3      0.00000     55.67079      6.56150     26.95316
  286 1     3      0.00000     19.21787     43.01444     26.95316
  287 1     3      0.00000     19.21787      6.56150     63.40609
  288 1     3      0.00000     55.67079     43.01444     63.40609
  289 1     4      0.00000     50.68397      1.64770     33.05537
  290 1     4      0.00000     14.23119     38.10052     33.05537
  291 1     4      0.00000     14.23119      1.64770     69.50829
  292 1     4      0.00000     50.68397     38.10052     69.50829
  293 1     4      0.00000     53.68783      8.72681     24.78787
  294 1     4      0.00000     17.23491     45.17974     24.78787
  295 1     4      0.00000     17.23491      8.72681     61.24079
  296 1     4      0.00000     53.68783     45.17974     61.24079
  297 1     3      0.00000     40.44808     16.57883     33.05537
  298 1     3      0.00000      3.99520     53.03161     33.05537
  299 1     3      0.00000      3.99520     16.57883     69.50829
  300 1     3      0.00000     40.44808     53.03161     69.50829
  301 1     3      0.00000     37.44437      9.49961     24.78787
  302 1     3      0.00000      0.99150     45.95254     24.78787
  303 1     3      0.00000      0.99150      9.49961     61.24079
  304 1     3      0.00000     37.44437     45.95254     61.24079
  305 1     4      0.00000     14.23119     16.57883     21.62383
  306 1     4      0.00000     50.68397     53.03161     21.62383
  307 1     4      0.00000     50.68397     16.57883     58.07668
  308 1     4      0.00000     14.23119     53.03161     58.07668
  309 1     3      0.00000     17.23491      9.49961     29.89126
  310 1     3      0.00000     53.68783     45.95254     29.89126
  311 1     3      0.00000     53.68783      9.49961     66.34419
  312 1     3      0.00000     17.23491     45.95254     66.34419
  313 1     3      0.00000      3.99520      1.64770     21.62383
  314 1     3      0.00000     40.44808     38.10052     21.62383
  315 1     3      0.00000     40.44808      1.64770     58.07668
  316 1     3      0.00000      3.99520     38.10052     58.07668
  317 1     3      0.00000      0.99150      8.72681     29.89126
  318 1     3      0.00000     37.44437     45.17974     29.89126
  319 1     3      0.00000     37.44437      8.72681     66.34419
  320 1     3      0.00000      0.99150     45.17974     66.34419
  321 1     3      0.00000      1.64770     21.62383      3.99520
  322 1     3      0.00000     38.10052     58.07668      3.99520
  323 1     3      0.00000     38.10052     21.62383     40.44808
  324 1     3      0.00000      1.64770     58.07668     40.44808
  325 1     3      0.00000      8.72681     29.89126      0.99150
  326 1     3      0.00000     45.17974     66.34419      0.99150
  327 1     3      0.00000     45.17974     29.89126     37.44437
  328 1     3      0.00000      8.72681     66.34419     37.44437
  329 1     4      0.00000     16.57883     21.62383     14.23119
  330 1     4      0.00000     53.03161     58.07668     14.23119
  331 1     4      0.00000     53.03161     21.62383     50.68397
  332 1     4      0.00000     16.57883     58.07668     50.68397
  333 1     3      0.00000      9.49961     29.89126     17.23491
  334 1     3      0.00000     45.95254     66.34419     17.23491
  335 1     3      0.00000     45.95254     29.89126     53.68783
  336 1     3      0.00000      9.49961     66.34419     53.68783
  337 1     4      0.00000     53.03161     33.05537      3.99520
  338 1     4      0.00000     16.57883     69.50829      3.99520
  339 1     4      0.00000     16.57883     33.05537     40.44808
  340 1     4      0.00000     53.03161     69.50829     40.44808
  341 1     3      0.00000     45.95254     24.78787      0.99150
  342 1     3      0.00000      9.49961     61.24079      0.99150
  343 1     3      0.00000      9.49961     24.78787     37.44437
  344 1     3      0.00000     45.95254     61.24079     37.44437
  345 1     3      0.00000     38.10052     33.05537     14.23119
  346 1     3      0.00000      1.64770     69.50829     14.23119
  347 1     3      0.00000      1.64770     33.05537     50.68397
  348 1     3      0.00000     38.10052     69.50829     50.68397
  349 1     4      0.00000     45.17974     24.78787     17.23491
  350 1     4      0.00000      8.72681     61.24079     17.23491
  351 1     4      0.00000      8.72681     24.78787     53.68783
  352 1     4      0.00000     45.17974     61.24079     53.68783
  353 1     4      0.00000     21.62383     14.23119     16.57883
  354 1     4      0.00000     58.07668     50.68397     16.57883
  355 1     4      0.00000     58.07668     14.23119     53.03161
  356 1     4      0.00000     21.62383     50.68397     53.03161
  357 1     3      0.00000     29.89126     17.23491      9.49961
  358 1     3      0.00000     66.34419     53.68783      9.49961
  359 1     3      0.00000     66.34419     17.23491     45.95254
  360 1     3      0.00000     29.89126     53.68783     45.95254
  361 1     3      0.00000     21.62383      3.99520      1.64770
  362 1     3      0.00000     58.07668     40.44808      1.64770
  363 1     3      0.00000     58.07668      3.99520     38.10052
  364 1     3      0.00000     21.62383     40.44808     38.10052
  365 1     3      0.00000     29.89126      0.99150      8.72681
  366 1     3      0.00000     66.34419     37.44437      8.72681
  367 1     3      0.00000     66.34419      0.99150     45.17974
  368 1     3      0.00000     29.89126     37.44437     45.17974
  369 1     3      0.00000     69.50829     14.23119      1.64770
  370 1     3      0.00000     33.05537     50.68397      1.64770
  371 1     3      0.00000     33.05537     14.23119     38.10052
  372 1     3      0.00000     69.50829     50.68397     38.10052
  373 1     3      0.00000     61.24079     17.23491      8.72681
  374 1     3      0.00000     24.78787     53.68783      8.72681
  375 1     3      0.00000     24.78787     17.23491     45.17974
  376 1     3      0.00000     61.24079     53.68783     45.17974
  377 1     3      0.00000     69.50829      3.99520     16.57883
  378 1     3      0.00000     33.05537     40.44808     16.57883
  379 1     3      0.00000     33.05537      3.99520     53.03161
  380 1     3      0.00000     69.50829     40.44808     53.03161
  381 1     3      0.00000     61.24079      0.99150      9.49961
  382 1     3      0.00000     24.78787     37.44437      9.49961
  383 1     3      0.00000     24.78787      0.99150     45.95254
  384 1     3      0.00000     61.24079     37.44437     45.95254
  385 1     3      0.00000     11.67220      6.55420      4.14830
  386 1     3      0.00000     48.12513     43.00707      4.14830