Created by Ryther's code on 2024-12-06 18:03:22.205256

    3168 atoms
    3696 bonds
    6336 angles
    6912 dihedrals
    1536 impropers

    5 atom types
    8 bond types
    10 angle types
    3 dihedral types
    2 improper types

0.00000000 59.153 xlo xhi
0.00000000 59.153 ylo yhi
0.00000000 59.153 zlo zhi
0.0 0.0 0.0 xy xz yz 

Masses 

    1    12.0107
    2    12.0107
    3     63.546
    4    1.00794
    5    15.9994

Pair Coeffs

    1       0.10500      3.43085 # C_1 C_1
    2       0.10500      3.43085 # C_R C_R
    3       0.00500      3.11369 # Cu4+2 Cu4+2
    4       0.04400      2.57113 # H_ H_
    5       0.06000      3.11815 # O_2_M O_2_M

Bond Coeffs

    1     165.69608      2.00798 # Cu4+2 O_2_M bond order=0.5
    2      36.72975      3.03272 # Cu4+2 Cu4+2 bond order=0.25
    3     357.44038      1.08142 # C_R H_ bond order=1.0
    4     391.66951      1.45800 # C_R C_R bond order=1.0
    5     714.55744      1.26901 # C_R O_2_M bond order=1.5
    6     462.65505      1.37926 # C_R C_R bond order=1.5
    7     410.80587      1.43500 # C_1 C_R bond order=1.0
    8     693.14814      1.20538 # C_1 C_1 bond order=3.0

Angle Coeffs

    1      38.49981            1            4 # Cu4+2 Cu4+2 O_2_M
    2     115.06366            1            4 # O_2_M Cu4+2 O_2_M
    3     137.71425           -1            3 # C_R C_R O_2_M
    4     206.77843           -1            3 # O_2_M C_R O_2_M
    5      57.28902           -1            3 # C_R C_R H_
    6     111.29751           -1            3 # C_R C_R C_R
    7     102.18328           -1            3 # C_R C_R C_R
    8     104.76060           -1            3 # C_1 C_R C_R
    9      65.94709            1            1 # C_1 C_1 C_R
    10     57.09052           -1            3 # C_R O_2_M Cu4+2

Dihedral Coeffs

    1       1.25000           -1            2 # X C_R C_R X bond order=1.0
    2       6.73711           -1            2 # X C_R O_2_M X bond order=1.5
    3       3.36856           -1            2 # X C_R C_R X bond order=1.5

Improper Coeffs

    1      16.66667      1.00000     -1.00000      0.00000            1 # C_R X X X O_2 present=True
    2       2.00000      1.00000     -1.00000      0.00000            1 # C_R X X X O_2 present=False

Atoms

    1 1     3      0.00000      0.00000      5.64142      5.64142
    2 1     3      0.00000      0.00000     53.51158      5.64142
    3 1     3      0.00000      0.00000      5.64142     53.51158
    4 1     3      0.00000      0.00000     53.51158     53.51158
    5 1     3      0.00000      5.64142      0.00000      5.64142
    6 1     3      0.00000      5.64142      0.00000     53.51158
    7 1     3      0.00000     53.51158      0.00000      5.64142
    8 1     3      0.00000     53.51158      0.00000     53.51158
    9 1     3      0.00000      5.64142      5.64142      0.00000
   10 1     3      0.00000     53.51158      5.64142      0.00000
   11 1     3      0.00000      5.64142     53.51158      0.00000
   12 1     3      0.00000     53.51158     53.51158      0.00000
   13 1     3      0.00000      0.00000     35.21792     35.21792
   14 1     3      0.00000      0.00000     23.93508     35.21792
   15 1     3      0.00000      0.00000     35.21792     23.93508
   16 1     3      0.00000      0.00000     23.93508     23.93508
   17 1     3      0.00000      5.64142     29.57650     35.21792
   18 1     3      0.00000      5.64142     29.57650     23.93508
   19 1     3      0.00000     53.51158     29.57650     35.21792
   20 1     3      0.00000     53.51158     29.57650     23.93508
   21 1     3      0.00000      5.64142     35.21792     29.57650
   22 1     3      0.00000     53.51158     35.21792     29.57650
   23 1     3      0.00000      5.64142     23.93508     29.57650
   24 1     3      0.00000     53.51158     23.93508     29.57650
   25 1     3      0.00000     29.57650      5.64142     35.21792
   26 1     3      0.00000     29.57650     53.51158     35.21792
   27 1     3      0.00000     29.57650      5.64142     23.93508
   28 1     3      0.00000     29.57650     53.51158     23.93508
   29 1     3      0.00000     35.21792      0.00000     35.21792
   30 1     3      0.00000     35.21792      0.00000     23.93508
   31 1     3      0.00000     23.93508      0.00000     35.21792
   32 1     3      0.00000     23.93508      0.00000     23.93508
   33 1     3      0.00000     35.21792      5.64142     29.57650
   34 1     3      0.00000     23.93508      5.64142     29.57650
   35 1     3      0.00000     35.21792     53.51158     29.57650
   36 1     3      0.00000     23.93508     53.51158     29.57650
   37 1     3      0.00000     29.57650     35.21792      5.64142
   38 1     3      0.00000     29.57650     23.93508      5.64142
   39 1     3      0.00000     29.57650     35.21792     53.51158
   40 1     3      0.00000     29.57650     23.93508     53.51158
   41 1     3      0.00000     35.21792     29.57650      5.64142
   42 1     3      0.00000     35.21792     29.57650     53.51158
   43 1     3      0.00000     23.93508     29.57650      5.64142
   44 1     3      0.00000     23.93508     29.57650     53.51158
   45 1     3      0.00000     35.21792     35.21792      0.00000
   46 1     3      0.00000     23.93508     35.21792      0.00000
   47 1     3      0.00000     35.21792     23.93508      0.00000
   48 1     3      0.00000     23.93508     23.93508      0.00000
   49 1     3      0.00000      0.00000      7.51243      7.51243
   50 1     3      0.00000      0.00000     51.64057      7.51243
   51 1     3      0.00000      0.00000      7.51243     51.64057
   52 1     3      0.00000      0.00000     51.64057     51.64057
   53 1     3      0.00000      7.51243      0.00000      7.51243
   54 1     3      0.00000      7.51243      0.00000     51.64057
   55 1     3      0.00000     51.64057      0.00000      7.51243
   56 1     3      0.00000     51.64057      0.00000     51.64057
   57 1     3      0.00000      7.51243      7.51243      0.00000
   58 1     3      0.00000     51.64057      7.51243      0.00000
   59 1     3      0.00000      7.51243     51.64057      0.00000
   60 1     3      0.00000     51.64057     51.64057      0.00000
   61 1     3      0.00000      0.00000     37.08893     37.08893
   62 1     3      0.00000      0.00000     22.06407     37.08893
   63 1     3      0.00000      0.00000     37.08893     22.06407
   64 1     3      0.00000      0.00000     22.06407     22.06407
   65 1     3      0.00000      7.51243     29.57650     37.08893
   66 1     3      0.00000      7.51243     29.57650     22.06407
   67 1     3      0.00000     51.64057     29.57650     37.08893
   68 1     3      0.00000     51.64057     29.57650     22.06407
   69 1     3      0.00000      7.51243     37.08893     29.57650
   70 1     3      0.00000     51.64057     37.08893     29.57650
   71 1     3      0.00000      7.51243     22.06407     29.57650
   72 1     3      0.00000     51.64057     22.06407     29.57650
   73 1     3      0.00000     29.57650      7.51243     37.08893
   74 1     3      0.00000     29.57650     51.64057     37.08893
   75 1     3      0.00000     29.57650      7.51243     22.06407
   76 1     3      0.00000     29.57650     51.64057     22.06407
   77 1     3      0.00000     37.08893      0.00000     37.08893
   78 1     3      0.00000     37.08893      0.00000     22.06407
   79 1     3      0.00000     22.06407      0.00000     37.08893
   80 1     3      0.00000     22.06407      0.00000     22.06407
   81 1     3      0.00000     37.08893      7.51243     29.57650
   82 1     3      0.00000     22.06407      7.51243     29.57650
   83 1     3      0.00000     37.08893     51.64057     29.57650
   84 1     3      0.00000     22.06407     51.64057     29.57650
   85 1     3      0.00000     29.57650     37.08893      7.51243
   86 1     3      0.00000     29.57650     22.06407      7.51243
   87 1     3      0.00000     29.57650     37.08893     51.64057
   88 1     3      0.00000     29.57650     22.06407     51.64057
   89 1     3      0.00000     37.08893     29.57650      7.51243
   90 1     3      0.00000     37.08893     29.57650     51.64057
   91 1     3      0.00000     22.06407     29.57650      7.51243
   92 1     3      0.00000     22.06407     29.57650     51.64057
   93 1     3      0.00000     37.08893     37.08893      0.00000
   94 1     3      0.00000     22.06407     37.08893      0.00000
   95 1     3      0.00000     37.08893     22.06407      0.00000
   96 1     3      0.00000     22.06407     22.06407      0.00000
   97 1     4      0.00000      3.25933      3.25933      7.03329
   98 1     4      0.00000     55.89367     55.89367      7.03329
   99 1     4      0.00000     55.89367      3.25933     52.11971
  100 1     4      0.00000      3.25933     55.89367     52.11971
  101 1     4      0.00000      7.03329      3.25933      3.25933
  102 1     4      0.00000      7.03329     55.89367     55.89367
  103 1     4      0.00000     52.11971     55.89367      3.25933
  104 1     4      0.00000     52.11971      3.25933     55.89367
  105 1     4      0.00000      3.25933      7.03329      3.25933
  106 1     4      0.00000     55.89367      7.03329     55.89367
  107 1     4      0.00000      3.25933     52.11971     55.89367
  108 1     4      0.00000     55.89367     52.11971      3.25933
  109 1     4      0.00000      3.25933      3.25933     52.11971
  110 1     4      0.00000     55.89367     55.89367     52.11971
  111 1     4      0.00000      3.25933     55.89367      7.03329
  112 1     4      0.00000     55.89367      3.25933      7.03329
  113 1     4      0.00000      3.25933      7.03329     55.89367
  114 1     4      0.00000     55.89367      7.03329      3.25933
  115 1     4      0.00000     55.89367     52.11971     55.89367
  116 1     4      0.00000      3.25933     52.11971      3.25933
  117 1     4      0.00000      7.03329      3.25933     55.89367
  118 1     4      0.00000      7.03329     55.89367      3.25933
  119 1     4      0.00000     52.11971      3.25933      3.25933
  120 1     4      0.00000     52.11971     55.89367     55.89367
  121 1     4      0.00000      3.25933     32.83583     36.60979
  122 1     4      0.00000     55.89367     26.31717     36.60979
  123 1     4      0.00000     55.89367     32.83583     22.54321
  124 1     4      0.00000      3.25933     26.31717     22.54321
  125 1     4      0.00000      7.03329     32.83583     32.83583
  126 1     4      0.00000      7.03329     26.31717     26.31717
  127 1     4      0.00000     52.11971     26.31717     32.83583
  128 1     4      0.00000     52.11971     32.83583     26.31717
  129 1     4      0.00000      3.25933     36.60979     32.83583
  130 1     4      0.00000     55.89367     36.60979     26.31717
  131 1     4      0.00000      3.25933     22.54321     26.31717
  132 1     4      0.00000     55.89367     22.54321     32.83583
  133 1     4      0.00000      3.25933     32.83583     22.54321
  134 1     4      0.00000     55.89367     26.31717     22.54321
  135 1     4      0.00000      3.25933     26.31717     36.60979
  136 1     4      0.00000     55.89367     32.83583     36.60979
  137 1     4      0.00000      3.25933     36.60979     26.31717
  138 1     4      0.00000     55.89367     36.60979     32.83583
  139 1     4      0.00000     55.89367     22.54321     26.31717
  140 1     4      0.00000      3.25933     22.54321     32.83583
  141 1     4      0.00000      7.03329     32.83583     26.31717
  142 1     4      0.00000      7.03329     26.31717     32.83583
  143 1     4      0.00000     52.11971     32.83583     32.83583
  144 1     4      0.00000     52.11971     26.31717     26.31717
  145 1     4      0.00000     32.83583      3.25933     36.60979
  146 1     4      0.00000     26.31717     55.89367     36.60979
  147 1     4      0.00000     26.31717      3.25933     22.54321
  148 1     4      0.00000     32.83583     55.89367     22.54321
  149 1     4      0.00000     36.60979      3.25933     32.83583
  150 1     4      0.00000     36.60979     55.89367     26.31717
  151 1     4      0.00000     22.54321     55.89367     32.83583
  152 1     4      0.00000     22.54321      3.25933     26.31717
  153 1     4      0.00000     32.83583      7.03329     32.83583
  154 1     4      0.00000     26.31717      7.03329     26.31717
  155 1     4      0.00000     32.83583     52.11971     26.31717
  156 1     4      0.00000     26.31717     52.11971     32.83583
  157 1     4      0.00000     32.83583      3.25933     22.54321
  158 1     4      0.00000     26.31717     55.89367     22.54321
  159 1     4      0.00000     32.83583     55.89367     36.60979
  160 1     4      0.00000     26.31717      3.25933     36.60979
  161 1     4      0.00000     32.83583      7.03329     26.31717
  162 1     4      0.00000     26.31717      7.03329     32.83583
  163 1     4      0.00000     26.31717     52.11971     26.31717
  164 1     4      0.00000     32.83583     52.11971     32.83583
  165 1     4      0.00000     36.60979      3.25933     26.31717
  166 1     4      0.00000     36.60979     55.89367     32.83583
  167 1     4      0.00000     22.54321      3.25933     32.83583
  168 1     4      0.00000     22.54321     55.89367     26.31717
  169 1     4      0.00000     32.83583     32.83583      7.03329
  170 1     4      0.00000     26.31717     26.31717      7.03329
  171 1     4      0.00000     26.31717     32.83583     52.11971
  172 1     4      0.00000     32.83583     26.31717     52.11971
  173 1     4      0.00000     36.60979     32.83583      3.25933
  174 1     4      0.00000     36.60979     26.31717     55.89367
  175 1     4      0.00000     22.54321     26.31717      3.25933
  176 1     4      0.00000     22.54321     32.83583     55.89367
  177 1     4      0.00000     32.83583     36.60979      3.25933
  178 1     4      0.00000     26.31717     36.60979     55.89367
  179 1     4      0.00000     32.83583     22.54321     55.89367
  180 1     4      0.00000     26.31717     22.54321      3.25933
  181 1     4      0.00000     32.83583     32.83583     52.11971
  182 1     4      0.00000     26.31717     26.31717     52.11971
  183 1     4      0.00000     32.83583     26.31717      7.03329
  184 1     4      0.00000     26.31717     32.83583      7.03329
  185 1     4      0.00000     32.83583     36.60979     55.89367
  186 1     4      0.00000     26.31717     36.60979      3.25933
  187 1     4      0.00000     26.31717     22.54321     55.89367
  188 1     4      0.00000     32.83583     22.54321      3.25933
  189 1     4      0.00000     36.60979     32.83583     55.89367
  190 1     4      0.00000     36.60979     26.31717      3.25933
  191 1     4      0.00000     22.54321     32.83583      3.25933
  192 1     4      0.00000     22.54321     26.31717     55.89367
  193 1     4      0.00000      2.93399      5.79699     10.14474
  194 1     4      0.00000     56.21901     53.35601     10.14474
  195 1     4      0.00000     56.21901      5.79699     49.00826
  196 1     4      0.00000      2.93399     53.35601     49.00826
  197 1     4      0.00000     10.14474      2.93399      5.79699
  198 1     4      0.00000     10.14474     56.21901     53.35601
  199 1     4      0.00000     49.00826     56.21901      5.79699
  200 1     4      0.00000     49.00826      2.93399     53.35601
  201 1     4      0.00000      5.79699     10.14474      2.93399
  202 1     4      0.00000     53.35601     10.14474     56.21901
  203 1     4      0.00000      5.79699     49.00826     56.21901
  204 1     4      0.00000     53.35601     49.00826      2.93399
  205 1     4      0.00000      5.79699      2.93399     49.00826
  206 1     4      0.00000     53.35601     56.21901     49.00826
  207 1     4      0.00000      5.79699     56.21901     10.14474
  208 1     4      0.00000     53.35601      2.93399     10.14474
  209 1     4      0.00000      2.93399     10.14474     53.35601
  210 1     4      0.00000     56.21901     10.14474      5.79699
  211 1     4      0.00000     56.21901     49.00826     53.35601
  212 1     4      0.00000      2.93399     49.00826      5.79699
  213 1     4      0.00000     10.14474      5.79699     56.21901
  214 1     4      0.00000     10.14474     53.35601      2.93399
  215 1     4      0.00000     49.00826      5.79699      2.93399
  216 1     4      0.00000     49.00826     53.35601     56.21901
  217 1     4      0.00000     56.21901     53.35601     49.00826
  218 1     4      0.00000      2.93399      5.79699     49.00826
  219 1     4      0.00000      2.93399     53.35601     10.14474
  220 1     4      0.00000     56.21901      5.79699     10.14474
  221 1     4      0.00000     49.00826     56.21901     53.35601
  222 1     4      0.00000     49.00826      2.93399      5.79699
  223 1     4      0.00000     10.14474      2.93399     53.35601
  224 1     4      0.00000     10.14474     56.21901      5.79699
  225 1     4      0.00000     53.35601     49.00826     56.21901
  226 1     4      0.00000      5.79699     49.00826      2.93399
  227 1     4      0.00000     53.35601     10.14474      2.93399
  228 1     4      0.00000      5.79699     10.14474     56.21901
  229 1     4      0.00000     53.35601     56.21901     10.14474
  230 1     4      0.00000      5.79699      2.93399     10.14474
  231 1     4      0.00000     53.35601      2.93399     49.00826
  232 1     4      0.00000      5.79699     56.21901     49.00826
  233 1     4      0.00000     56.21901     49.00826      5.79699
  234 1     4      0.00000      2.93399     49.00826     53.35601
  235 1     4      0.00000      2.93399     10.14474      5.79699
  236 1     4      0.00000     56.21901     10.14474     53.35601
  237 1     4      0.00000     49.00826     53.35601      2.93399
  238 1     4      0.00000     49.00826      5.79699     56.21901
  239 1     4      0.00000     10.14474     53.35601     56.21901
  240 1     4      0.00000     10.14474      5.79699      2.93399
  241 1     4      0.00000      2.93399     35.37349     39.72124
  242 1     4      0.00000     56.21901     23.77951     39.72124
  243 1     4      0.00000     56.21901     35.37349     19.43176
  244 1     4      0.00000      2.93399     23.77951     19.43176
  245 1     4      0.00000     10.14474     32.51049     35.37349
  246 1     4      0.00000     10.14474     26.64251     23.77951
  247 1     4      0.00000     49.00826     26.64251     35.37349
  248 1     4      0.00000     49.00826     32.51049     23.77951
  249 1     4      0.00000      5.79699     39.72124     32.51049
  250 1     4      0.00000     53.35601     39.72124     26.64251
  251 1     4      0.00000      5.79699     19.43176     26.64251
  252 1     4      0.00000     53.35601     19.43176     32.51049
  253 1     4      0.00000      5.79699     32.51049     19.43176
  254 1     4      0.00000     53.35601     26.64251     19.43176
  255 1     4      0.00000      5.79699     26.64251     39.72124
  256 1     4      0.00000     53.35601     32.51049     39.72124
  257 1     4      0.00000      2.93399     39.72124     23.77951
  258 1     4      0.00000     56.21901     39.72124     35.37349
  259 1     4      0.00000     56.21901     19.43176     23.77951
  260 1     4      0.00000      2.93399     19.43176     35.37349
  261 1     4      0.00000     10.14474     35.37349     26.64251
  262 1     4      0.00000     10.14474     23.77951     32.51049
  263 1     4      0.00000     49.00826     35.37349     32.51049
  264 1     4      0.00000     49.00826     23.77951     26.64251
  265 1     4      0.00000     56.21901     23.77951     19.43176
  266 1     4      0.00000      2.93399     35.37349     19.43176
  267 1     4      0.00000      2.93399     23.77951     39.72124
  268 1     4      0.00000     56.21901     35.37349     39.72124
  269 1     4      0.00000     49.00826     26.64251     23.77951
  270 1     4      0.00000     49.00826     32.51049     35.37349
  271 1     4      0.00000     10.14474     32.51049     23.77951
  272 1     4      0.00000     10.14474     26.64251     35.37349
  273 1     4      0.00000     53.35601     19.43176     26.64251
  274 1     4      0.00000      5.79699     19.43176     32.51049
  275 1     4      0.00000     53.35601     39.72124     32.51049
  276 1     4      0.00000      5.79699     39.72124     26.64251
  277 1     4      0.00000     53.35601     26.64251     39.72124
  278 1     4      0.00000      5.79699     32.51049     39.72124
  279 1     4      0.00000     53.35601     32.51049     19.43176
  280 1     4      0.00000      5.79699     26.64251     19.43176
  281 1     4      0.00000     56.21901     19.43176     35.37349
  282 1     4      0.00000      2.93399     19.43176     23.77951
  283 1     4      0.00000      2.93399     39.72124     35.37349
  284 1     4      0.00000     56.21901     39.72124     23.77951
  285 1     4      0.00000     49.00826     23.77951     32.51049
  286 1     4      0.00000     49.00826     35.37349     26.64251
  287 1     4      0.00000     10.14474     23.77951     26.64251
  288 1     4      0.00000     10.14474     35.37349     32.51049
  289 1     4      0.00000     32.51049      5.79699     39.72124
  290 1     4      0.00000     26.64251     53.35601     39.72124
  291 1     4      0.00000     26.64251      5.79699     19.43176
  292 1     4      0.00000     32.51049     53.35601     19.43176
  293 1     4      0.00000     39.72124      2.93399     35.37349
  294 1     4      0.00000     39.72124     56.21901     23.77951
  295 1     4      0.00000     19.43176     56.21901     35.37349
  296 1     4      0.00000     19.43176      2.93399     23.77951
  297 1     4      0.00000     35.37349     10.14474     32.51049
  298 1     4      0.00000     23.77951     10.14474     26.64251
  299 1     4      0.00000     35.37349     49.00826     26.64251
  300 1     4      0.00000     23.77951     49.00826     32.51049
  301 1     4      0.00000     35.37349      2.93399     19.43176
  302 1     4      0.00000     23.77951     56.21901     19.43176
  303 1     4      0.00000     35.37349     56.21901     39.72124
  304 1     4      0.00000     23.77951      2.93399     39.72124
  305 1     4      0.00000     32.51049     10.14474     23.77951
  306 1     4      0.00000     26.64251     10.14474     35.37349
  307 1     4      0.00000     26.64251     49.00826     23.77951
  308 1     4      0.00000     32.51049     49.00826     35.37349
  309 1     4      0.00000     39.72124      5.79699     26.64251
  310 1     4      0.00000     39.72124     53.35601     32.51049
  311 1     4      0.00000     19.43176      5.79699     32.51049
  312 1     4      0.00000     19.43176     53.35601     26.64251
  313 1     4      0.00000     26.64251     53.35601     19.43176
  314 1     4      0.00000     32.51049      5.79699     19.43176
  315 1     4      0.00000     32.51049     53.35601     39.72124
  316 1     4      0.00000     26.64251      5.79699     39.72124
  317 1     4      0.00000     19.43176     56.21901     23.77951
  318 1     4      0.00000     19.43176      2.93399     35.37349
  319 1     4      0.00000     39.72124      2.93399     23.77951
  320 1     4      0.00000     39.72124     56.21901     35.37349
  321 1     4      0.00000     23.77951     49.00826     26.64251
  322 1     4      0.00000     35.37349     49.00826     32.51049
  323 1     4      0.00000     23.77951     10.14474     32.51049
  324 1     4      0.00000     35.37349     10.14474     26.64251
  325 1     4      0.00000     23.77951     56.21901     39.72124
  326 1     4      0.00000     35.37349      2.93399     39.72124
  327 1     4      0.00000     23.77951      2.93399     19.43176
  328 1     4      0.00000     35.37349     56.21901     19.43176
  329 1     4      0.00000     26.64251     49.00826     35.37349
  330 1     4      0.00000     32.51049     49.00826     23.77951
  331 1     4      0.00000     32.51049     10.14474     35.37349
  332 1     4      0.00000     26.64251     10.14474     23.77951
  333 1     4      0.00000     19.43176     53.35601     32.51049
  334 1     4      0.00000     19.43176      5.79699     26.64251
  335 1     4      0.00000     39.72124     53.35601     26.64251
  336 1     4      0.00000     39.72124      5.79699     32.51049
  337 1     4      0.00000     32.51049     35.37349     10.14474
  338 1     4      0.00000     26.64251     23.77951     10.14474
  339 1     4      0.00000     26.64251     35.37349     49.00826
  340 1     4      0.00000     32.51049     23.77951     49.00826
  341 1     4      0.00000     39.72124     32.51049      5.79699
  342 1     4      0.00000     39.72124     26.64251     53.35601
  343 1     4      0.00000     19.43176     26.64251      5.79699
  344 1     4      0.00000     19.43176     32.51049     53.35601
  345 1     4      0.00000     35.37349     39.72124      2.93399
  346 1     4      0.00000     23.77951     39.72124     56.21901
  347 1     4      0.00000     35.37349     19.43176     56.21901
  348 1     4      0.00000     23.77951     19.43176      2.93399
  349 1     4      0.00000     35.37349     32.51049     49.00826
  350 1     4      0.00000     23.77951     26.64251     49.00826
  351 1     4      0.00000     35.37349     26.64251     10.14474
  352 1     4      0.00000     23.77951     32.51049     10.14474
  353 1     4      0.00000     32.51049     39.72124     53.35601
  354 1     4      0.00000     26.64251     39.72124      5.79699
  355 1     4      0.00000     26.64251     19.43176     53.35601
  356 1     4      0.00000     32.51049     19.43176      5.79699
  357 1     4      0.00000     39.72124     35.37349     56.21901
  358 1     4      0.00000     39.72124     23.77951      2.93399
  359 1     4      0.00000     19.43176     35.37349      2.93399
  360 1     4      0.00000     19.43176     23.77951     56.21901
  361 1     4      0.00000     26.64251     23.77951     49.00826
  362 1     4      0.00000     32.51049     35.37349     49.00826
  363 1     4      0.00000     32.51049     23.77951     10.14474
  364 1     4      0.00000     26.64251     35.37349     10.14474
  365 1     4      0.00000     19.43176     26.64251     53.35601
  366 1     4      0.00000     19.43176     32.51049      5.79699
  367 1     4      0.00000     39.72124     32.51049     53.35601
  368 1     4      0.00000     39.72124     26.64251      5.79699
  369 1     4      0.00000     23.77951     19.43176     56.21901
  370 1     4      0.00000     35.37349     19.43176      2.93399
  371 1     4      0.00000     23.77951     39.72124      2.93399
  372 1     4      0.00000     35.37349     39.72124     56.21901
  373 1     4      0.00000     23.77951     26.64251     10.14474
  374 1     4      0.00000     35.37349     32.51049     10.14474
  375 1     4      0.00000     23.77951     32.51049     49.00826
  376 1     4      0.00000     35.37349     26.64251     49.00826
  377 1     4      0.00000     26.64251     19.43176      5.79699
  378 1     4      0.00000     32.51049     19.43176     53.35601
  379 1     4      0.00000     32.51049     39.72124      5.79699
  380 1     4      0.00000     26.64251     39.72124     53.35601
  381 1     4      0.00000     19.43176     23.77951      2.93399
  382 1     4      0.00000     19.43176     35.37349     56.21901
  383 1     4      0.00000     39.72124     23.77951     56.21901
  384 1     4      0.00000     39.72124     35.37349      2.93399
  385 1     4      0.00000      4.22944      7.09244     14.19080
  386 1     4      0.00000     54.92356     52.06056     14.19080
  387 1     4      0.00000     54.92356      7.09244     44.96220
  388 1     4      0.00000      4.22944     52.06056     44.96220
  389 1     4      0.00000     14.19080      4.22944      7.09244
  390 1     4      0.00000     14.19080     54.92356     52.06056
  391 1     4      0.00000     44.96220     54.92356      7.09244
  392 1     4      0.00000     44.96220      4.22944     52.06056
  393 1     4      0.00000      7.09244     14.19080      4.22944
  394 1     4      0.00000     52.06056     14.19080     54.92356
  395 1     4      0.00000      7.09244     44.96220     54.92356
  396 1     4      0.00000     52.06056     44.96220      4.22944
  397 1     4      0.00000      7.09244      4.22944     44.96220
  398 1     4      0.00000     52.06056     54.92356     44.96220
  399 1     4      0.00000      7.09244     54.92356     14.19080
  400 1     4      0.00000     52.06056      4.22944     14.19080
  401 1     4      0.00000      4.22944     14.19080     52.06056
  402 1     4      0.00000     54.92356     14.19080      7.09244
  403 1     4      0.00000     54.92356     44.96220     52.06056
  404 1     4      0.00000      4.22944     44.96220      7.09244
  405 1     4      0.00000     14.19080      7.09244     54.92356
  406 1     4      0.00000     14.19080     52.06056      4.22944
  407 1     4      0.00000     44.96220      7.09244      4.22944
  408 1     4      0.00000     44.96220     52.06056     54.92356
  409 1     4      0.00000     54.92356     52.06056     44.96220
  410 1     4      0.00000      4.22944      7.09244     44.96220
  411 1     4      0.00000      4.22944     52.06056     14.19080
  412 1     4      0.00000     54.92356      7.09244     14.19080
  413 1     4      0.00000     44.96220     54.92356     52.06056
  414 1     4      0.00000     44.96220      4.22944      7.09244
  415 1     4      0.00000     14.19080      4.22944     52.06056
  416 1     4      0.00000     14.19080     54.92356      7.09244
  417 1     4      0.00000     52.06056     44.96220     54.92356
  418 1     4      0.00000      7.09244     44.96220      4.22944
  419 1     4      0.00000     52.06056     14.19080      4.22944
  420 1     4      0.00000      7.09244     14.19080     54.92356