Created by Ryther's code on 2024-12-06 18:44:48.757624

    162 atoms
    252 bonds
    720 angles
    468 dihedrals
    72 impropers

    5 atom types
    8 bond types
    15 angle types
    4 dihedral types
    2 improper types

0.00000000 26.136 xlo xhi
0.00000000 22.63443995 ylo yhi
0.00000000 6.942 zlo zhi
-13.068 0.0 0.0 xy xz yz 

Masses 

    1    12.0107
    2    1.00794
    3     24.305
    4    15.9994
    5    15.9994

Pair Coeffs

    1       0.10500      3.43085 # C_R C_R
    2       0.04400      2.57113 # H_ H_
    3       0.11100      2.69141 # Mg3+2 Mg3+2
    4       0.06000      3.11815 # O_2_M O_2_M
    5       0.06000      3.11815 # O_3_f O_3_f

Bond Coeffs

    1      27.77308      3.36679 # Mg3+2 Mg3+2 bond order=0.25
    2     133.71898      2.16894 # Mg3+2 O_3_f bond order=0.5
    3     133.73061      2.16894 # Mg3+2 O_2_M bond order=0.5
    4     357.44038      1.08142 # C_R H_ bond order=1.0
    5     714.55744      1.26901 # C_R O_2_M bond order=1.5
    6     714.49531      1.26901 # C_R O_3_f bond order=1.5
    7     391.66951      1.45800 # C_R C_R bond order=1.0
    8     462.65505      1.37926 # C_R C_R bond order=1.5

Angle Coeffs

    1  fourier                 36.09872      0.34375      0.37500      0.28125 # Mg3+2 Mg3+2 O_3_f
    2  fourier                 17.00747      0.34375      0.37500      0.28125 # Mg3+2 Mg3+2 Mg3+2
    3  fourier                 36.10186      0.34375      0.37500      0.28125 # Mg3+2 Mg3+2 O_2_M
    4  fourier                105.40753      0.34375      0.37500      0.28125 # O_3_f Mg3+2 O_3_f
    5  fourier                105.41670      0.34375      0.37500      0.28125 # O_2_M Mg3+2 O_3_f
    6  cosine/periodic        206.76045           -1            3 # O_2_M C_R O_3_f
    7  cosine/periodic        137.71425           -1            3 # C_R C_R O_2_M
    8  cosine/periodic        137.70227           -1            3 # C_R C_R O_3_f
    9  cosine/periodic        102.18328           -1            3 # C_R C_R C_R
    10 cosine/periodic        111.29751           -1            3 # C_R C_R C_R
    11 cosine/periodic        150.95560           -1            3 # C_R C_R O_3_f
    12 cosine/periodic         57.28902           -1            3 # C_R C_R H_
    13 fourier                 63.61304      0.34375      0.37500      0.28125 # Mg3+2 O_3_f Mg3+2
    14 fourier                120.32536      0.34375      0.37500      0.28125 # C_R O_3_f Mg3+2
    15 cosine/periodic         49.14952           -1            3 # C_R O_2_M Mg3+2

Dihedral Coeffs

    1       6.73711           -1            2 # X C_R O_2_M X bond order=1.5
    2       0.00000           -1            2 # X C_R O_3_f X bond order=1.5
    3       1.25000           -1            2 # X C_R C_R X bond order=1.0
    4       3.36856           -1            2 # X C_R C_R X bond order=1.5

Improper Coeffs

    1      16.66667      1.00000     -1.00000      0.00000            1 # C_R X X X O_2 present=True
    2       2.00000      1.00000     -1.00000      0.00000            1 # C_R X X X O_2 present=False

Atoms

    1 1     3      0.00000      7.81519     15.50776      3.27586
    2 1     3      0.00000     -4.26971     21.64871      3.27586
    3 1     3      0.00000     -3.54548      8.11241      3.27586
    4 1     3      0.00000      5.25281      7.12668      3.66614
    5 1     3      0.00000     17.33771      0.98573      3.66614
    6 1     3      0.00000     16.61348     14.52203      3.66614
    7 1     3      0.00000      7.81519      0.41813      5.58986
    8 1     3      0.00000     21.86629      6.55908      5.58986
    9 1     3      0.00000      9.52252     15.65722      5.58986
   10 1     3      0.00000     -7.81519     14.67149      5.98014
   11 1     3      0.00000      4.26971      8.53054      5.98014
   12 1     3      0.00000      3.54548     22.06684      5.98014
   13 1     3      0.00000     20.88319      7.96295      0.96186
   14 1     3      0.00000      8.79829     14.10390      0.96186
   15 1     3      0.00000      9.52252      0.56760      0.96186
   16 1     3      0.00000      5.25281     22.21631      1.35214
   17 1     3      0.00000     -8.79829     16.07536      1.35214
   18 1     3      0.00000      3.54548      6.97722      1.35214
   19 1     2      0.00000     -6.89272     19.42103      3.32647
   20 1     2      0.00000     -0.30475      6.95466      3.32647
   21 1     2      0.00000      7.19746     18.89319      3.32647
   22 1     2      0.00000     19.96072      3.21341      3.61553
   23 1     2      0.00000     13.37275     15.67978      3.61553
   24 1     2      0.00000      5.87054      3.74125      3.61553
   25 1     2      0.00000     19.24328      4.33140      5.64047
   26 1     2      0.00000     12.76325     14.49947      5.64047
   27 1     2      0.00000      7.19746      3.80357      5.64047
   28 1     2      0.00000      6.89272     10.75822      5.92953
   29 1     2      0.00000     13.37275      0.59016      5.92953
   30 1     2      0.00000     18.93854     11.28606      5.92953
   31 1     2      0.00000      6.17528     11.87622      1.01247
   32 1     2      0.00000     -0.30475     22.04428      1.01247
   33 1     2      0.00000     -5.87054     11.34838      1.01247
   34 1     2      0.00000     -6.17528     18.30304      1.30153
   35 1     2      0.00000      0.30475      8.13497      1.30153
   36 1     2      0.00000      5.87054     18.83087      1.30153
   37 1     1      0.00000     21.00733      5.56355      2.96444
   38 1     1      0.00000     10.81416     15.41111      2.96444
   39 1     1      0.00000      7.38251      1.65978      2.96444
   40 1     1      0.00000     -7.93933     17.07089      3.97756
   41 1     1      0.00000      2.25384      7.22333      3.97756
   42 1     1      0.00000      5.68549     20.97466      3.97756
   43 1     1      0.00000      7.93933     13.10836      5.27844
   44 1     1      0.00000     10.81416      0.32148      5.27844
   45 1     1      0.00000     20.45051      9.20460      5.27844
   46 1     1      0.00000     18.19667      1.98127      6.29156
   47 1     1      0.00000     15.32184     14.76814      6.29156
   48 1     1      0.00000      5.68549      5.88503      6.29156
   49 1     1      0.00000     -5.12867     20.65317      0.65044
   50 1     1      0.00000     -2.25384      7.86630      0.65044
   51 1     1      0.00000      7.38251     16.74941      0.65044
   52 1     1      0.00000      5.12867      9.52608      1.66356
   53 1     1      0.00000      2.25384     22.31296      1.66356
   54 1     1      0.00000     -7.38251     13.42984      1.66356
   55 1     1      0.00000     20.27173      4.68782      2.01894
   56 1     1      0.00000     11.94036     15.21193      2.01894
   57 1     1      0.00000      6.99190      2.73469      2.01894
   58 1     1      0.00000     -7.20373     17.94662      4.92306
   59 1     1      0.00000      1.12764      7.42251      4.92306
   60 1     1      0.00000      6.07610     19.89975      4.92306
   61 1     1      0.00000      7.20373     12.23263      4.33294
   62 1     1      0.00000     11.94036      0.12230      4.33294
   63 1     1      0.00000     20.05990     10.27951      4.33294
   64 1     1      0.00000     18.93227      2.85699      0.29506
   65 1     1      0.00000     14.19564     14.96733      0.29506
   66 1     1      0.00000      6.07610      4.81012      0.29506
   67 1     1      0.00000     -5.86426     19.77745      6.64694
   68 1     1      0.00000     -1.12764      7.66711      6.64694
   69 1     1      0.00000      6.99190     17.82432      6.64694
   70 1     1      0.00000      5.86426     10.40181      2.60906
   71 1     1      0.00000      1.12764     22.51214      2.60906
   72 1     1      0.00000     -6.99190     12.35493      2.60906
   73 1     1      0.00000     -6.06590     20.12790      5.24052
   74 1     1      0.00000     -1.33032      7.31726      5.24052
   75 1     1      0.00000      7.39623     17.82372      5.24052
   76 1     1      0.00000     19.13390      2.50654      1.70148
   77 1     1      0.00000     14.39832     15.31718      1.70148
   78 1     1      0.00000      5.67177      4.81072      1.70148
   79 1     1      0.00000     20.07010      5.03828      0.61252
   80 1     1      0.00000     11.73768     14.86208      0.61252
   81 1     1      0.00000      7.39623      2.73409      0.61252
   82 1     1      0.00000      6.06590     10.05135      4.01548
   83 1     1      0.00000     14.39832      0.22755      4.01548
   84 1     1      0.00000     18.73977     12.35554      4.01548
   85 1     1      0.00000      7.00210     12.58309      2.92652
   86 1     1      0.00000     -1.33032     22.40689      2.92652
   87 1     1      0.00000     -5.67177     10.27890      2.92652
   88 1     1      0.00000     -7.00210     17.59616      6.32948
   89 1     1      0.00000      1.33032      7.77236      6.32948
   90 1     1      0.00000      5.67177     19.90035      6.32948
   91 1     1      0.00000     -6.72989     19.18472      4.41220
   92 1     1      0.00000     -0.18151      7.21382      4.41220
   93 1     1      0.00000      6.91140     18.87033      4.41220
   94 1     1      0.00000     19.79789      3.44971      2.52980
   95 1     1      0.00000     13.24951     15.42062      2.52980
   96 1     1      0.00000      6.15660      3.76411      2.52980
   97 1     1      0.00000     19.40611      4.09510      6.72620
   98 1     1      0.00000     12.88649     14.75864      6.72620
   99 1     1      0.00000      6.91140      3.78071      6.72620
  100 1     1      0.00000      6.72989     10.99453      4.84380
  101 1     1      0.00000     13.24951      0.33099      4.84380
  102 1     1      0.00000     19.22460     11.30892      4.84380
  103 1     1      0.00000      6.33811     11.63991      2.09820
  104 1     1      0.00000     -0.18151     22.30345      2.09820
  105 1     1      0.00000     -6.15660     11.32552      2.09820
  106 1     1      0.00000     -6.33811     18.53934      0.21580
  107 1     1      0.00000      0.18151      7.87580      0.21580
  108 1     1      0.00000      6.15660     18.85373      0.21580
  109 1     5      0.00000     21.44589      6.73963      2.50176
  110 1     5      0.00000      9.57636     15.20287      2.50176
  111 1     5      0.00000      8.18174      0.69193      2.50176
  112 1     5      0.00000     -8.37789     15.89481      4.44024
  113 1     5      0.00000      3.49164      7.43157      4.44024
  114 1     5      0.00000      4.88626     21.94251      4.44024
  115 1     5      0.00000      8.37789     14.28444      4.81576
  116 1     5      0.00000      9.57636      0.11325      4.81576
  117 1     5      0.00000     21.24974      8.23675      4.81576
  118 1     5      0.00000     17.75811      0.80518      6.75424
  119 1     5      0.00000     16.55964     14.97638      6.75424
  120 1     5      0.00000      4.88626      6.85288      6.75424
  121 1     5      0.00000     -4.69011     21.82926      0.18776
  122 1     5      0.00000     -3.49164      7.65806      0.18776
  123 1     5      0.00000      8.18174     15.78156      0.18776
  124 1     5      0.00000      4.69011      8.35000      2.12624
  125 1     5      0.00000      3.49164     22.52119      2.12624
  126 1     5      0.00000     -8.18174     14.39769      2.12624
  127 1     4      0.00000     21.23263      5.21679      4.23601
  128 1     4      0.00000     11.00182     15.77960      4.23601
  129 1     4      0.00000      6.96956      1.63805      4.23601
  130 1     4      0.00000     -8.16463     17.41765      2.70599
  131 1     4      0.00000      2.06618      6.85484      2.70599
  132 1     4      0.00000      6.09844     20.99639      2.70599
  133 1     4      0.00000      8.16463     12.76160      6.55001
  134 1     4      0.00000     11.00182      0.68997      6.55001
  135 1     4      0.00000     20.03756      9.18287      6.55001
  136 1     4      0.00000     17.97137      2.32803      5.01999
  137 1     4      0.00000     15.13418     14.39965      5.01999
  138 1     4      0.00000      6.09844      5.90676      5.01999
  139 1     4      0.00000     -4.90337     20.30641      1.92201
  140 1     4      0.00000     -2.06618      8.23479      1.92201
  141 1     4      0.00000      6.96956     16.72768      1.92201
  142 1     4      0.00000      4.90337      9.87284      0.39199
  143 1     4      0.00000      2.06618     21.94447      0.39199
  144 1     4      0.00000     -6.96956     13.45157      0.39199
  145 1     5      0.00000     -5.64760     21.32277      4.67773
  146 1     5      0.00000     -2.57427      7.08209      4.67773
  147 1     5      0.00000      8.22186     16.86402      4.67773
  148 1     5      0.00000     18.71560      1.31167      2.26427
  149 1     5      0.00000     15.64227     15.55235      2.26427
  150 1     5      0.00000      4.84614      5.77042      2.26427
  151 1     5      0.00000     20.48840      6.23315      0.04973
  152 1     5      0.00000     10.49373     14.62690      0.04973
  153 1     5      0.00000      8.22186      1.77439      0.04973
  154 1     5      0.00000      5.64760      8.85648      4.57827
  155 1     5      0.00000     15.64227      0.46272      4.57827
  156 1     5      0.00000     17.91414     13.31524      4.57827
  157 1     5      0.00000      7.42040     13.77796      2.36373
  158 1     5      0.00000     -2.57427     22.17172      2.36373
  159 1     5      0.00000     -4.84614      9.31920      2.36373
  160 1     5      0.00000     -7.42040     16.40129      6.89227
  161 1     5      0.00000      2.57427      8.00754      6.89227
  162 1     5      0.00000      4.84614     20.86005      6.89227

Bonds

    1 1     1      14    
    2 1     1      9     
    3 1     2      15    
    4 1     2      7     
    5 1     3      8     
    6 1     3      13    
    7 1     4      11    
    8 1     4      18    
    9 1     5      12    
   10 1     5      16    
   11 1     6      17    
   12 1     6      10    
   13 1     7      15    
   14 1     8      13    
   15 1     9      14    
   16 1     10     17    
   17 1     11     18    
   18 1     12     16    
   19 2     1      157   
   20 2     1      110   
   21 2     1      147   
   22 2     1      115   
   23 2     2      111   
   24 2     2      145   
   25 2     2      116   
   26 2     2      158   
   27 2     3      146   
   28 2     3      159   
   29 2     3      109   
   30 2     3      117   
   31 2     4      124   
   32 2     4      150   
   33 2     4      154   
   34 2     4      113   
   35 2     5      148   
   36 2     5      155   
   37 2     5      114   
   38 2     5      125   
   39 2     6      126   
   40 2     6      156   
   41 2     6      112   
   42 2     6      149   
   43 2     7      116   
   44 2     7      153   
   45 2     7      121   
   46 2     7      145   
   47 2     8      122   
   48 2     8      117   
   49 2     8      151   
   50 2     8      146   
   51 2     9      152   
   52 2     9      115   
   53 2     9      147   
   54 2     9      123   
   55 2     10     160   
   56 2     10     112   
   57 2     10     119   
   58 2     10     156   
   59 2     11     113   
   60 2     11     154   
   61 2     11     120   
   62 2     11     161   
   63 2     12     155   
   64 2     12     118   
   65 2     12     162   
   66 2     12     114   
   67 2     13     109   
   68 2     13     151   
   69 2     13     159   
   70 2     13     122   
   71 2     14     152   
   72 2     14     110   
   73 2     14     157   
   74 2     14     123   
   75 2     15     111   
   76 2     15     153   
   77 2     15     121   
   78 2     15     158   
   79 2     16     125   
   80 2     16     118   
   81 2     16     148   
   82 2     16     162   
   83 2     17     126   
   84 2     17     119   
   85 2     17     149   
   86 2     17     160   
   87 2     18     124   
   88 2     18     150   
   89 2     18     120   
   90 2     18     161   
   91 3     1      141   
   92 3     2      139   
   93 3     3      140   
   94 3     4      138   
   95 3     5      136   
   96 3     6      137   
   97 3     7      129   
   98 3     8      127   
   99 3     9      128   
  100 3     10     144   
  101 3     11     142   
  102 3     12     143   
  103 3     13     135   
  104 3     14     133   
  105 3     15     134   
  106 3     16     132   
  107 3     17     130   
  108 3     18     131   
  109 4     19     91    
  110 4     20     92    
  111 4     21     93    
  112 4     22     94    
  113 4     23     95    
  114 4     24     96    
  115 4     25     97    
  116 4     26     98    
  117 4     27     99    
  118 4     28     100   
  119 4     29     101   
  120 4     30     102   
  121 4     31     103   
  122 4     32     104   
  123 4     33     105   
  124 4     34     106   
  125 4     35     107   
  126 4     36     108   
  127 5     37     127   
  128 5     38     128   
  129 5     39     129   
  130 5     40     130   
  131 5     41     131   
  132 5     42     132   
  133 5     43     133   
  134 5     44     134   
  135 5     45     135   
  136 5     46     136   
  137 5     47     137   
  138 5     48     138   
  139 5     49     139   
  140 5     50     140   
  141 5     51     141   
  142 5     52     142   
  143 5     53     143   
  144 5     54     144   
  145 6     37     109   
  146 6     38     110   
  147 6     39     111   
  148 6     40     112   
  149 6     41     113   
  150 6     42     114   
  151 6     43     115   
  152 6     44     116   
  153 6     45     117   
  154 6     46     118   
  155 6     47     119   
  156 6     48     120   
  157 6     49     121   
  158 6     50     122   
  159 6     51     123   
  160 6     52     124   
  161 6     53     125   
  162 6     54     126   
  163 6     73     145   
  164 6     74     146   
  165 6     75     147   
  166 6     76     148   
  167 6     77     149   
  168 6     78     150   
  169 6     79     151   
  170 6     80     152   
  171 6     81     153   
  172 6     82     154   
  173 6     83     155   
  174 6     84     156   
  175 6     85     157   
  176 6     86     158   
  177 6     87     159   
  178 6     88     160   
  179 6     89     161   
  180 6     90     162   
  181 7     37     55    
  182 7     38     56    
  183 7     39     57    
  184 7     40     58    
  185 7     41     59    
  186 7     42     60    
  187 7     43     61    
  188 7     44     62    
  189 7     45     63    
  190 7     46     64    
  191 7     47     65    
  192 7     48     66    
  193 7     49     67    
  194 7     50     68    
  195 7     51     69    
  196 7     52     70    
  197 7     53     71    
  198 7     54     72    
  199 8     55     79    
  200 8     55     94    
  201 8     56     95    
  202 8     56     80    
  203 8     57     96    
  204 8     57     81    
  205 8     58     91    
  206 8     58     88    
  207 8     59     89    
  208 8     59     92    
  209 8     60     93    
  210 8     60     90    
  211 8     61     85    
  212 8     61     100   
  213 8     62     101   
  214 8     62     86    
  215 8     63     87    
  216 8     63     102   
  217 8     64     76    
  218 8     64     97    
  219 8     65     77    
  220 8     65     98    
  221 8     66     78    
  222 8     66     99    
  223 8     67     73    
  224 8     67     106   
  225 8     68     74    
  226 8     68     107   
  227 8     69     108   
  228 8     69     75    
  229 8     70     103   
  230 8     70     82    
  231 8     71     104   
  232 8     71     83    
  233 8     72     105   
  234 8     72     84    
  235 8     73     91    
  236 8     74     92    
  237 8     75     93    
  238 8     76     94    
  239 8     77     95    
  240 8     78     96    
  241 8     79     97    
  242 8     80     98    
  243 8     81     99    
  244 8     82     100   
  245 8     83     101   
  246 8     84     102   
  247 8     85     103   
  248 8     86     104   
  249 8     87     105   
  250 8     88     106   
  251 8     89     107   
  252 8     90     108   

Angles

    1 1     14     1      157   
    2 1     14     1      110   
    3 1     14     1      147   
    4 1     14     1      115   
    5 1     9      1      157   
    6 1     9      1      110   
    7 1     9      1      147   
    8 1     9      1      115   
    9 1     15     2      111   
   10 1     15     2      145   
   11 1     15     2      116   
   12 1     15     2      158   
   13 1     7      2      111   
   14 1     7      2      145   
   15 1     7      2      116   
   16 1     7      2      158   
   17 1     8      3      146   
   18 1     13     3      146   
   19 1     8      3      159   
   20 1     13     3      159   
   21 1     8      3      109   
   22 1     8      3      117   
   23 1     13     3      109   
   24 1     13     3      117   
   25 1     11     4      124   
   26 1     18     4      124   
   27 1     11     4      150   
   28 1     18     4      150   
   29 1     11     4      154   
   30 1     11     4      113   
   31 1     18     4      154   
   32 1     18     4      113   
   33 1     12     5      148   
   34 1     16     5      148   
   35 1     12     5      155   
   36 1     16     5      155   
   37 1     12     5      114   
   38 1     12     5      125   
   39 1     16     5      114   
   40 1     16     5      125   
   41 1     17     6      126   
   42 1     10     6      126   
   43 1     17     6      156   
   44 1     17     6      112   
   45 1     17     6      149   
   46 1     10     6      156   
   47 1     10     6      112   
   48 1     10     6      149   
   49 1     2      7      116   
   50 1     2      7      153   
   51 1     2      7      121   
   52 1     2      7      145   
   53 1     15     7      116   
   54 1     15     7      153   
   55 1     15     7      121   
   56 1     15     7      145   
   57 1     3      8      122   
   58 1     3      8      117   
   59 1     3      8      151   
   60 1     3      8      146   
   61 1     13     8      122   
   62 1     13     8      117   
   63 1     13     8      151   
   64 1     13     8      146   
   65 1     1      9      152   
   66 1     1      9      115   
   67 1     1      9      147   
   68 1     1      9      123   
   69 1     14     9      152   
   70 1     14     9      115   
   71 1     14     9      147   
   72 1     14     9      123   
   73 1     6      10     160   
   74 1     6      10     112   
   75 1     6      10     119   
   76 1     6      10     156   
   77 1     17     10     160   
   78 1     17     10     112   
   79 1     17     10     119   
   80 1     17     10     156   
   81 1     4      11     113   
   82 1     4      11     154   
   83 1     4      11     120   
   84 1     4      11     161   
   85 1     18     11     113   
   86 1     18     11     154   
   87 1     18     11     120   
   88 1     18     11     161   
   89 1     5      12     155   
   90 1     5      12     118   
   91 1     5      12     162   
   92 1     5      12     114   
   93 1     16     12     155   
   94 1     16     12     118   
   95 1     16     12     162   
   96 1     16     12     114   
   97 1     3      13     109   
   98 1     3      13     151   
   99 1     3      13     159   
  100 1     3      13     122   
  101 1     8      13     109   
  102 1     8      13     151   
  103 1     8      13     159   
  104 1     8      13     122   
  105 1     1      14     152   
  106 1     1      14     110   
  107 1     1      14     157   
  108 1     1      14     123   
  109 1     9      14     152   
  110 1     9      14     110   
  111 1     9      14     157   
  112 1     9      14     123   
  113 1     2      15     111   
  114 1     2      15     153   
  115 1     2      15     121   
  116 1     2      15     158   
  117 1     7      15     111   
  118 1     7      15     153   
  119 1     7      15     121   
  120 1     7      15     158   
  121 1     5      16     125   
  122 1     5      16     118   
  123 1     5      16     148   
  124 1     5      16     162   
  125 1     12     16     125   
  126 1     12     16     118   
  127 1     12     16     148   
  128 1     12     16     162   
  129 1     6      17     126   
  130 1     6      17     119   
  131 1     6      17     149   
  132 1     6      17     160   
  133 1     10     17     126   
  134 1     10     17     119   
  135 1     10     17     149   
  136 1     10     17     160   
  137 1     4      18     124   
  138 1     4      18     150   
  139 1     4      18     120   
  140 1     4      18     161   
  141 1     11     18     124   
  142 1     11     18     150   
  143 1     11     18     120   
  144 1     11     18     161   
  145 2     14     1      9     
  146 2     15     2      7     
  147 2     8      3      13    
  148 2     11     4      18    
  149 2     12     5      16    
  150 2     17     6      10    
  151 2     2      7      15    
  152 2     3      8      13    
  153 2     1      9      14    
  154 2     6      10     17    
  155 2     4      11     18    
  156 2     5      12     16    
  157 2     3      13     8     
  158 2     1      14     9     
  159 2     2      15     7     
  160 2     5      16     12    
  161 2     6      17     10    
  162 2     4      18     11    
  163 3     14     1      141   
  164 3     9      1      141   
  165 3     15     2      139   
  166 3     7      2      139   
  167 3     8      3      140   
  168 3     13     3      140   
  169 3     11     4      138   
  170 3     18     4      138   
  171 3     12     5      136   
  172 3     16     5      136   
  173 3     17     6      137   
  174 3     10     6      137   
  175 3     2      7      129   
  176 3     15     7      129   
  177 3     3      8      127   
  178 3     13     8      127   
  179 3     1      9      128   
  180 3     14     9      128   
  181 3     6      10     144   
  182 3     17     10     144   
  183 3     4      11     142   
  184 3     18     11     142   
  185 3     5      12     143   
  186 3     16     12     143   
  187 3     3      13     135   
  188 3     8      13     135   
  189 3     1      14     133   
  190 3     9      14     133   
  191 3     2      15     134   
  192 3     7      15     134   
  193 3     5      16     132   
  194 3     12     16     132   
  195 3     6      17     130   
  196 3     10     17     130   
  197 3     4      18     131   
  198 3     11     18     131   
  199 4     157    1      110   
  200 4     157    1      147   
  201 4     157    1      115   
  202 4     110    1      147   
  203 4     110    1      115   
  204 4     147    1      115   
  205 4     111    2      145   
  206 4     111    2      116   
  207 4     111    2      158   
  208 4     145    2      116   
  209 4     145    2      158   
  210 4     116    2      158   
  211 4     146    3      159   
  212 4     146    3      109   
  213 4     146    3      117   
  214 4     159    3      109   
  215 4     159    3      117   
  216 4     109    3      117   
  217 4     124    4      150   
  218 4     124    4      154   
  219 4     124    4      113   
  220 4     150    4      154   
  221 4     150    4      113   
  222 4     154    4      113   
  223 4     148    5      155   
  224 4     148    5      114   
  225 4     148    5      125   
  226 4     155    5      114   
  227 4     155    5      125   
  228 4     114    5      125   
  229 4     126    6      156   
  230 4     126    6      112   
  231 4     126    6      149   
  232 4     156    6      112   
  233 4     156    6      149   
  234 4     112    6      149   
  235 4     116    7      153   
  236 4     116    7      121   
  237 4     116    7      145   
  238 4     153    7      121   
  239 4     153    7      145   
  240 4     121    7      145   
  241 4     122    8      117   
  242 4     122    8      151   
  243 4     122    8      146   
  244 4     117    8      151   
  245 4     117    8      146   
  246 4     151    8      146   
  247 4     152    9      115   
  248 4     152    9      147   
  249 4     152    9      123   
  250 4     115    9      147   
  251 4     115    9      123   
  252 4     147    9      123   
  253 4     160    10     112   
  254 4     160    10     119   
  255 4     160    10     156   
  256 4     112    10     119   
  257 4     112    10     156   
  258 4     119    10     156   
  259 4     113    11     154   
  260 4     113    11     120   
  261 4     113    11     161   
  262 4     154    11     120   
  263 4     154    11     161   
  264 4     120    11     161   
  265 4     155    12     118   
  266 4     155    12     162   
  267 4     155    12     114   
  268 4     118    12     162   
  269 4     118    12     114   
  270 4     162    12     114   
  271 4     109    13     151   
  272 4     109    13     159   
  273 4     109    13     122   
  274 4     151    13     159   
  275 4     151    13     122   
  276 4     159    13     122   
  277 4     152    14     110   
  278 4     152    14     157   
  279 4     152    14     123   
  280 4     110    14     157   
  281 4     110    14     123   
  282 4     157    14     123   
  283 4     111    15     153   
  284 4     111    15     121   
  285 4     111    15     158   
  286 4     153    15     121   
  287 4     153    15     158   
  288 4     121    15     158   
  289 4     125    16     118   
  290 4     125    16     148   
  291 4     125    16     162   
  292 4     118    16     148   