Created by Ryther's code on 2024-12-06 18:05:38.928904

    3168 atoms
    3696 bonds
    6336 angles
    6912 dihedrals
    1536 impropers

    6 atom types
    10 bond types
    15 angle types
    4 dihedral types
    3 improper types

0.00000000 59.872 xlo xhi
0.00000000 59.872 ylo yhi
0.00000000 59.872 zlo zhi
0.0 0.0 0.0 xy xz yz 

Masses 

    1    12.0107
    2    12.0107
    3    12.0107
    4     63.546
    5    1.00794
    6    15.9994

Pair Coeffs

    1       0.10500      3.43085 # C_1 C_1
    2       0.10500      3.43085 # C_2 C_2
    3       0.10500      3.43085 # C_R C_R
    4       0.00500      3.11369 # Cu4+2 Cu4+2
    5       0.04400      2.57113 # H_ H_
    6       0.06000      3.11815 # O_2_M O_2_M

Bond Coeffs

    1     165.69608      2.00798 # Cu4+2 O_2_M bond order=0.5
    2      36.72975      3.03272 # Cu4+2 Cu4+2 bond order=0.25
    3     357.44038      1.08142 # C_R H_ bond order=1.0
    4     714.55744      1.26901 # C_R O_2_M bond order=1.5
    5     391.66951      1.45800 # C_R C_R bond order=1.0
    6     462.65505      1.37926 # C_R C_R bond order=1.5
    7     520.53955      1.32611 # C_2 C_R bond order=2.0
    8     410.80587      1.43500 # C_1 C_R bond order=1.0
    9     693.14814      1.20538 # C_1 C_1 bond order=3.0
    10    408.24012      1.43800 # C_1 C_2 bond order=1.0

Angle Coeffs

    1     115.06366            1            4 # O_2_M Cu4+2 O_2_M
    2      38.49981            1            4 # Cu4+2 Cu4+2 O_2_M
    3     137.71425           -1            3 # C_R C_R O_2_M
    4     206.77843           -1            3 # O_2_M C_R O_2_M
    5     102.18328           -1            3 # C_R C_R C_R
    6     111.29751           -1            3 # C_R C_R C_R
    7      57.28902           -1            3 # C_R C_R H_
    8      61.51171           -1            3 # C_2 C_R H_
    9     117.92729           -1            3 # C_2 C_R C_R
    10    104.76060           -1            3 # C_1 C_R C_R
    11     65.94709            1            1 # C_1 C_1 C_R
    12     65.72281            1            1 # C_1 C_1 C_2
    13    125.22235           -1            3 # C_R C_2 C_R
    14    110.38738           -1            3 # C_1 C_2 C_R
    15     57.09052           -1            3 # C_R O_2_M Cu4+2

Dihedral Coeffs

    1       6.73711           -1            2 # X C_R O_2_M X bond order=1.5
    2       1.25000           -1            2 # X C_R C_R X bond order=1.0
    3       3.36856           -1            2 # X C_R C_R X bond order=1.5
    4       4.87169           -1            2 # X C_2 C_R X bond order=2.0

Improper Coeffs

    1      16.66667      1.00000     -1.00000      0.00000            1 # C_R X X X O_2 present=True
    2       2.00000      1.00000     -1.00000      0.00000            1 # C_R X X X O_2 present=False
    3       2.00000      1.00000     -1.00000      0.00000            1 # C_2 X X X O_2 present=False

Atoms

    1 1     4      0.00000      0.00000      5.66509      5.66509
    2 1     4      0.00000      0.00000      7.54627      7.54627
    3 1     4      0.00000      0.00000     35.60109     35.60109
    4 1     4      0.00000      0.00000     37.48227     37.48227
    5 1     4      0.00000     29.93600      5.66509     35.60109
    6 1     4      0.00000     29.93600      7.54627     37.48227
    7 1     4      0.00000     29.93600     35.60109      5.66509
    8 1     4      0.00000     29.93600     37.48227      7.54627
    9 1     4      0.00000      0.00000     54.20691      5.66509
   10 1     4      0.00000      0.00000     52.32573      7.54627
   11 1     4      0.00000      0.00000     24.27091     35.60109
   12 1     4      0.00000      0.00000     22.38973     37.48227
   13 1     4      0.00000     29.93600     54.20691     35.60109
   14 1     4      0.00000     29.93600     52.32573     37.48227
   15 1     4      0.00000     29.93600     24.27091      5.66509
   16 1     4      0.00000     29.93600     22.38973      7.54627
   17 1     4      0.00000      0.00000      5.66509     54.20691
   18 1     4      0.00000      0.00000      7.54627     52.32573
   19 1     4      0.00000      0.00000     35.60109     24.27091
   20 1     4      0.00000      0.00000     37.48227     22.38973
   21 1     4      0.00000     29.93600      5.66509     24.27091
   22 1     4      0.00000     29.93600      7.54627     22.38973
   23 1     4      0.00000     29.93600     35.60109     54.20691
   24 1     4      0.00000     29.93600     37.48227     52.32573
   25 1     4      0.00000      0.00000     54.20691     54.20691
   26 1     4      0.00000      0.00000     52.32573     52.32573
   27 1     4      0.00000      0.00000     24.27091     24.27091
   28 1     4      0.00000      0.00000     22.38973     22.38973
   29 1     4      0.00000     29.93600     54.20691     24.27091
   30 1     4      0.00000     29.93600     52.32573     22.38973
   31 1     4      0.00000     29.93600     24.27091     54.20691
   32 1     4      0.00000     29.93600     22.38973     52.32573
   33 1     4      0.00000      5.66509      0.00000      5.66509
   34 1     4      0.00000      7.54627      0.00000      7.54627
   35 1     4      0.00000      5.66509     29.93600     35.60109
   36 1     4      0.00000      7.54627     29.93600     37.48227
   37 1     4      0.00000     35.60109      0.00000     35.60109
   38 1     4      0.00000     37.48227      0.00000     37.48227
   39 1     4      0.00000     35.60109     29.93600      5.66509
   40 1     4      0.00000     37.48227     29.93600      7.54627
   41 1     4      0.00000      5.66509      0.00000     54.20691
   42 1     4      0.00000      7.54627      0.00000     52.32573
   43 1     4      0.00000      5.66509     29.93600     24.27091
   44 1     4      0.00000      7.54627     29.93600     22.38973
   45 1     4      0.00000     35.60109      0.00000     24.27091
   46 1     4      0.00000     37.48227      0.00000     22.38973
   47 1     4      0.00000     35.60109     29.93600     54.20691
   48 1     4      0.00000     37.48227     29.93600     52.32573
   49 1     4      0.00000     54.20691      0.00000      5.66509
   50 1     4      0.00000     52.32573      0.00000      7.54627
   51 1     4      0.00000     54.20691     29.93600     35.60109
   52 1     4      0.00000     52.32573     29.93600     37.48227
   53 1     4      0.00000     24.27091      0.00000     35.60109
   54 1     4      0.00000     22.38973      0.00000     37.48227
   55 1     4      0.00000     24.27091     29.93600      5.66509
   56 1     4      0.00000     22.38973     29.93600      7.54627
   57 1     4      0.00000     54.20691      0.00000     54.20691
   58 1     4      0.00000     52.32573      0.00000     52.32573
   59 1     4      0.00000     54.20691     29.93600     24.27091
   60 1     4      0.00000     52.32573     29.93600     22.38973
   61 1     4      0.00000     24.27091      0.00000     24.27091
   62 1     4      0.00000     22.38973      0.00000     22.38973
   63 1     4      0.00000     24.27091     29.93600     54.20691
   64 1     4      0.00000     22.38973     29.93600     52.32573
   65 1     4      0.00000      5.66509      5.66509      0.00000
   66 1     4      0.00000      7.54627      7.54627      0.00000
   67 1     4      0.00000      5.66509     35.60109     29.93600
   68 1     4      0.00000      7.54627     37.48227     29.93600
   69 1     4      0.00000     35.60109      5.66509     29.93600
   70 1     4      0.00000     37.48227      7.54627     29.93600
   71 1     4      0.00000     35.60109     35.60109      0.00000
   72 1     4      0.00000     37.48227     37.48227      0.00000
   73 1     4      0.00000     54.20691      5.66509      0.00000
   74 1     4      0.00000     52.32573      7.54627      0.00000
   75 1     4      0.00000     54.20691     35.60109     29.93600
   76 1     4      0.00000     52.32573     37.48227     29.93600
   77 1     4      0.00000     24.27091      5.66509     29.93600
   78 1     4      0.00000     22.38973      7.54627     29.93600
   79 1     4      0.00000     24.27091     35.60109      0.00000
   80 1     4      0.00000     22.38973     37.48227      0.00000
   81 1     4      0.00000      5.66509     54.20691      0.00000
   82 1     4      0.00000      7.54627     52.32573      0.00000
   83 1     4      0.00000      5.66509     24.27091     29.93600
   84 1     4      0.00000      7.54627     22.38973     29.93600
   85 1     4      0.00000     35.60109     54.20691     29.93600
   86 1     4      0.00000     37.48227     52.32573     29.93600
   87 1     4      0.00000     35.60109     24.27091      0.00000
   88 1     4      0.00000     37.48227     22.38973      0.00000
   89 1     4      0.00000     54.20691     54.20691      0.00000
   90 1     4      0.00000     52.32573     52.32573      0.00000
   91 1     4      0.00000     54.20691     24.27091     29.93600
   92 1     4      0.00000     52.32573     22.38973     29.93600
   93 1     4      0.00000     24.27091     54.20691     29.93600
   94 1     4      0.00000     22.38973     52.32573     29.93600
   95 1     4      0.00000     24.27091     24.27091      0.00000
   96 1     4      0.00000     22.38973     22.38973      0.00000
   97 1     5      0.00000      3.08940      5.93930     10.08843
   98 1     5      0.00000      4.88556      7.60374     13.83642
   99 1     5      0.00000      5.66988      8.42399     15.93194
  100 1     5      0.00000      3.08940     35.87530     40.02443
  101 1     5      0.00000      4.88556     37.53974     43.77242
  102 1     5      0.00000      5.66988     38.35999     45.86794
  103 1     5      0.00000     33.02540      5.93930     40.02443
  104 1     5      0.00000     34.82156      7.60374     43.77242
  105 1     5      0.00000     35.60588      8.42399     45.86794
  106 1     5      0.00000     33.02540     35.87530     10.08843
  107 1     5      0.00000     34.82156     37.53974     13.83642
  108 1     5      0.00000     35.60588     38.35999     15.93194
  109 1     5      0.00000     56.78260     53.93270     10.08843
  110 1     5      0.00000     54.98644     52.26826     13.83642
  111 1     5      0.00000     54.20212     51.44801     15.93194
  112 1     5      0.00000     56.78260     23.99670     40.02443
  113 1     5      0.00000     54.98644     22.33226     43.77242
  114 1     5      0.00000     54.20212     21.51201     45.86794
  115 1     5      0.00000     26.84660     53.93270     40.02443
  116 1     5      0.00000     25.05044     52.26826     43.77242
  117 1     5      0.00000     24.26612     51.44801     45.86794
  118 1     5      0.00000     26.84660     23.99670     10.08843
  119 1     5      0.00000     25.05044     22.33226     13.83642
  120 1     5      0.00000     24.26612     21.51201     15.93194
  121 1     5      0.00000     56.78260      5.93930     49.78357
  122 1     5      0.00000     54.98644      7.60374     46.03558
  123 1     5      0.00000     54.20212      8.42399     43.94006
  124 1     5      0.00000     56.78260     35.87530     19.84757
  125 1     5      0.00000     54.98644     37.53974     16.09958
  126 1     5      0.00000     54.20212     38.35999     14.00406
  127 1     5      0.00000     26.84660      5.93930     19.84757
  128 1     5      0.00000     25.05044      7.60374     16.09958
  129 1     5      0.00000     24.26612      8.42399     14.00406
  130 1     5      0.00000     26.84660     35.87530     49.78357
  131 1     5      0.00000     25.05044     37.53974     46.03558
  132 1     5      0.00000     24.26612     38.35999     43.94006
  133 1     5      0.00000      3.08940     53.93270     49.78357
  134 1     5      0.00000      4.88556     52.26826     46.03558
  135 1     5      0.00000      5.66988     51.44801     43.94006
  136 1     5      0.00000      3.08940     23.99670     19.84757
  137 1     5      0.00000      4.88556     22.33226     16.09958
  138 1     5      0.00000      5.66988     21.51201     14.00406
  139 1     5      0.00000     33.02540     53.93270     19.84757
  140 1     5      0.00000     34.82156     52.26826     16.09958
  141 1     5      0.00000     35.60588     51.44801     14.00406
  142 1     5      0.00000     33.02540     23.99670     49.78357
  143 1     5      0.00000     34.82156     22.33226     46.03558
  144 1     5      0.00000     35.60588     21.51201     43.94006
  145 1     5      0.00000     10.08843      3.08940      5.93930
  146 1     5      0.00000     13.83642      4.88556      7.60374
  147 1     5      0.00000     15.93194      5.66988      8.42399
  148 1     5      0.00000     10.08843     33.02540     35.87530
  149 1     5      0.00000     13.83642     34.82156     37.53974
  150 1     5      0.00000     15.93194     35.60588     38.35999
  151 1     5      0.00000     40.02443      3.08940     35.87530
  152 1     5      0.00000     43.77242      4.88556     37.53974
  153 1     5      0.00000     45.86794      5.66988     38.35999
  154 1     5      0.00000     40.02443     33.02540      5.93930
  155 1     5      0.00000     43.77242     34.82156      7.60374
  156 1     5      0.00000     45.86794     35.60588      8.42399
  157 1     5      0.00000     10.08843     56.78260     53.93270
  158 1     5      0.00000     13.83642     54.98644     52.26826
  159 1     5      0.00000     15.93194     54.20212     51.44801
  160 1     5      0.00000     10.08843     26.84660     23.99670
  161 1     5      0.00000     13.83642     25.05044     22.33226
  162 1     5      0.00000     15.93194     24.26612     21.51201
  163 1     5      0.00000     40.02443     56.78260     23.99670
  164 1     5      0.00000     43.77242     54.98644     22.33226
  165 1     5      0.00000     45.86794     54.20212     21.51201
  166 1     5      0.00000     40.02443     26.84660     53.93270
  167 1     5      0.00000     43.77242     25.05044     52.26826
  168 1     5      0.00000     45.86794     24.26612     51.44801
  169 1     5      0.00000     49.78357     56.78260      5.93930
  170 1     5      0.00000     46.03558     54.98644      7.60374
  171 1     5      0.00000     43.94006     54.20212      8.42399
  172 1     5      0.00000     49.78357     26.84660     35.87530
  173 1     5      0.00000     46.03558     25.05044     37.53974
  174 1     5      0.00000     43.94006     24.26612     38.35999
  175 1     5      0.00000     19.84757     56.78260     35.87530
  176 1     5      0.00000     16.09958     54.98644     37.53974
  177 1     5      0.00000     14.00406     54.20212     38.35999
  178 1     5      0.00000     19.84757     26.84660      5.93930
  179 1     5      0.00000     16.09958     25.05044      7.60374
  180 1     5      0.00000     14.00406     24.26612      8.42399
  181 1     5      0.00000     49.78357      3.08940     53.93270
  182 1     5      0.00000     46.03558      4.88556     52.26826
  183 1     5      0.00000     43.94006      5.66988     51.44801
  184 1     5      0.00000     49.78357     33.02540     23.99670
  185 1     5      0.00000     46.03558     34.82156     22.33226
  186 1     5      0.00000     43.94006     35.60588     21.51201
  187 1     5      0.00000     19.84757      3.08940     23.99670
  188 1     5      0.00000     16.09958      4.88556     22.33226
  189 1     5      0.00000     14.00406      5.66988     21.51201
  190 1     5      0.00000     19.84757     33.02540     53.93270
  191 1     5      0.00000     16.09958     34.82156     52.26826
  192 1     5      0.00000     14.00406     35.60588     51.44801
  193 1     5      0.00000      5.93930     10.08843      3.08940
  194 1     5      0.00000      7.60374     13.83642      4.88556
  195 1     5      0.00000      8.42399     15.93194      5.66988
  196 1     5      0.00000      5.93930     40.02443     33.02540
  197 1     5      0.00000      7.60374     43.77242     34.82156
  198 1     5      0.00000      8.42399     45.86794     35.60588
  199 1     5      0.00000     35.87530     10.08843     33.02540
  200 1     5      0.00000     37.53974     13.83642     34.82156
  201 1     5      0.00000     38.35999     15.93194     35.60588
  202 1     5      0.00000     35.87530     40.02443      3.08940
  203 1     5      0.00000     37.53974     43.77242      4.88556
  204 1     5      0.00000     38.35999     45.86794      5.66988
  205 1     5      0.00000     53.93270     10.08843     56.78260
  206 1     5      0.00000     52.26826     13.83642     54.98644
  207 1     5      0.00000     51.44801     15.93194     54.20212
  208 1     5      0.00000     53.93270     40.02443     26.84660
  209 1     5      0.00000     52.26826     43.77242     25.05044
  210 1     5      0.00000     51.44801     45.86794     24.26612
  211 1     5      0.00000     23.99670     10.08843     26.84660
  212 1     5      0.00000     22.33226     13.83642     25.05044
  213 1     5      0.00000     21.51201     15.93194     24.26612
  214 1     5      0.00000     23.99670     40.02443     56.78260
  215 1     5      0.00000     22.33226     43.77242     54.98644
  216 1     5      0.00000     21.51201     45.86794     54.20212
  217 1     5      0.00000      5.93930     49.78357     56.78260
  218 1     5      0.00000      7.60374     46.03558     54.98644
  219 1     5      0.00000      8.42399     43.94006     54.20212
  220 1     5      0.00000      5.93930     19.84757     26.84660
  221 1     5      0.00000      7.60374     16.09958     25.05044
  222 1     5      0.00000      8.42399     14.00406     24.26612
  223 1     5      0.00000     35.87530     49.78357     26.84660
  224 1     5      0.00000     37.53974     46.03558     25.05044
  225 1     5      0.00000     38.35999     43.94006     24.26612
  226 1     5      0.00000     35.87530     19.84757     56.78260
  227 1     5      0.00000     37.53974     16.09958     54.98644
  228 1     5      0.00000     38.35999     14.00406     54.20212
  229 1     5      0.00000     53.93270     49.78357      3.08940
  230 1     5      0.00000     52.26826     46.03558      4.88556
  231 1     5      0.00000     51.44801     43.94006      5.66988
  232 1     5      0.00000     53.93270     19.84757     33.02540
  233 1     5      0.00000     52.26826     16.09958     34.82156
  234 1     5      0.00000     51.44801     14.00406     35.60588
  235 1     5      0.00000     23.99670     49.78357     33.02540
  236 1     5      0.00000     22.33226     46.03558     34.82156
  237 1     5      0.00000     21.51201     43.94006     35.60588
  238 1     5      0.00000     23.99670     19.84757      3.08940
  239 1     5      0.00000     22.33226     16.09958      4.88556
  240 1     5      0.00000     21.51201     14.00406      5.66988
  241 1     5      0.00000      5.93930      3.08940     49.78357
  242 1     5      0.00000      7.60374      4.88556     46.03558
  243 1     5      0.00000      8.42399      5.66988     43.94006
  244 1     5      0.00000      5.93930     33.02540     19.84757
  245 1     5      0.00000      7.60374     34.82156     16.09958
  246 1     5      0.00000      8.42399     35.60588     14.00406
  247 1     5      0.00000     35.87530      3.08940     19.84757
  248 1     5      0.00000     37.53974      4.88556     16.09958
  249 1     5      0.00000     38.35999      5.66988     14.00406
  250 1     5      0.00000     35.87530     33.02540     49.78357
  251 1     5      0.00000     37.53974     34.82156     46.03558
  252 1     5      0.00000     38.35999     35.60588     43.94006
  253 1     5      0.00000     53.93270     56.78260     49.78357
  254 1     5      0.00000     52.26826     54.98644     46.03558
  255 1     5      0.00000     51.44801     54.20212     43.94006
  256 1     5      0.00000     53.93270     26.84660     19.84757
  257 1     5      0.00000     52.26826     25.05044     16.09958
  258 1     5      0.00000     51.44801     24.26612     14.00406
  259 1     5      0.00000     23.99670     56.78260     19.84757
  260 1     5      0.00000     22.33226     54.98644     16.09958
  261 1     5      0.00000     21.51201     54.20212     14.00406
  262 1     5      0.00000     23.99670     26.84660     49.78357
  263 1     5      0.00000     22.33226     25.05044     46.03558
  264 1     5      0.00000     21.51201     24.26612     43.94006
  265 1     5      0.00000      5.93930     56.78260     10.08843
  266 1     5      0.00000      7.60374     54.98644     13.83642
  267 1     5      0.00000      8.42399     54.20212     15.93194
  268 1     5      0.00000      5.93930     26.84660     40.02443
  269 1     5      0.00000      7.60374     25.05044     43.77242
  270 1     5      0.00000      8.42399     24.26612     45.86794
  271 1     5      0.00000     35.87530     56.78260     40.02443
  272 1     5      0.00000     37.53974     54.98644     43.77242
  273 1     5      0.00000     38.35999     54.20212     45.86794
  274 1     5      0.00000     35.87530     26.84660     10.08843
  275 1     5      0.00000     37.53974     25.05044     13.83642
  276 1     5      0.00000     38.35999     24.26612     15.93194
  277 1     5      0.00000     53.93270      3.08940     10.08843
  278 1     5      0.00000     52.26826      4.88556     13.83642
  279 1     5      0.00000     51.44801      5.66988     15.93194
  280 1     5      0.00000     53.93270     33.02540     40.02443
  281 1     5      0.00000     52.26826     34.82156     43.77242
  282 1     5      0.00000     51.44801     35.60588     45.86794
  283 1     5      0.00000     23.99670      3.08940     40.02443
  284 1     5      0.00000     22.33226      4.88556     43.77242
  285 1     5      0.00000     21.51201      5.66988     45.86794
  286 1     5      0.00000     23.99670     33.02540     10.08843
  287 1     5      0.00000     22.33226     34.82156     13.83642
  288 1     5      0.00000     21.51201     35.60588     15.93194
  289 1     5      0.00000      3.08940     10.08843     53.93270
  290 1     5      0.00000      4.88556     13.83642     52.26826
  291 1     5      0.00000      5.66988     15.93194     51.44801
  292 1     5      0.00000      3.08940     40.02443     23.99670
  293 1     5      0.00000      4.88556     43.77242     22.33226
  294 1     5      0.00000      5.66988     45.86794     21.51201
  295 1     5      0.00000     33.02540     10.08843     23.99670
  296 1     5      0.00000     34.82156     13.83642     22.33226
  297 1     5      0.00000     35.60588     15.93194     21.51201
  298 1     5      0.00000     33.02540     40.02443     53.93270
  299 1     5      0.00000     34.82156     43.77242     52.26826
  300 1     5      0.00000     35.60588     45.86794     51.44801
  301 1     5      0.00000     56.78260     10.08843      5.93930
  302 1     5      0.00000     54.98644     13.83642      7.60374
  303 1     5      0.00000     54.20212     15.93194      8.42399
  304 1     5      0.00000     56.78260     40.02443     35.87530
  305 1     5      0.00000     54.98644     43.77242     37.53974
  306 1     5      0.00000     54.20212     45.86794     38.35999
  307 1     5      0.00000     26.84660     10.08843     35.87530
  308 1     5      0.00000     25.05044     13.83642     37.53974
  309 1     5      0.00000     24.26612     15.93194     38.35999
  310 1     5      0.00000     26.84660     40.02443      5.93930
  311 1     5      0.00000     25.05044     43.77242      7.60374
  312 1     5      0.00000     24.26612     45.86794      8.42399
  313 1     5      0.00000     56.78260     49.78357     53.93270
  314 1     5      0.00000     54.98644     46.03558     52.26826
  315 1     5      0.00000     54.20212     43.94006     51.44801
  316 1     5      0.00000     56.78260     19.84757     23.99670
  317 1     5      0.00000     54.98644     16.09958     22.33226
  318 1     5      0.00000     54.20212     14.00406     21.51201
  319 1     5      0.00000     26.84660     49.78357     23.99670
  320 1     5      0.00000     25.05044     46.03558     22.33226
  321 1     5      0.00000     24.26612     43.94006     21.51201
  322 1     5      0.00000     26.84660     19.84757     53.93270
  323 1     5      0.00000     25.05044     16.09958     52.26826
  324 1     5      0.00000     24.26612     14.00406     51.44801
  325 1     5      0.00000      3.08940     49.78357      5.93930
  326 1     5      0.00000      4.88556     46.03558      7.60374
  327 1     5      0.00000      5.66988     43.94006      8.42399
  328 1     5      0.00000      3.08940     19.84757     35.87530
  329 1     5      0.00000      4.88556     16.09958     37.53974
  330 1     5      0.00000      5.66988     14.00406     38.35999
  331 1     5      0.00000     33.02540     49.78357     35.87530
  332 1     5      0.00000     34.82156     46.03558     37.53974
  333 1     5      0.00000     35.60588     43.94006     38.35999
  334 1     5      0.00000     33.02540     19.84757      5.93930
  335 1     5      0.00000     34.82156     16.09958      7.60374
  336 1     5      0.00000     35.60588     14.00406      8.42399
  337 1     5      0.00000     10.08843      5.93930     56.78260
  338 1     5      0.00000     13.83642      7.60374     54.98644
  339 1     5      0.00000     15.93194      8.42399     54.20212
  340 1     5      0.00000     10.08843     35.87530     26.84660
  341 1     5      0.00000     13.83642     37.53974     25.05044
  342 1     5      0.00000     15.93194     38.35999     24.26612
  343 1     5      0.00000     40.02443      5.93930     26.84660
  344 1     5      0.00000     43.77242      7.60374     25.05044
  345 1     5      0.00000     45.86794      8.42399     24.26612
  346 1     5      0.00000     40.02443     35.87530     56.78260
  347 1     5      0.00000     43.77242     37.53974     54.98644
  348 1     5      0.00000     45.86794     38.35999     54.20212
  349 1     5      0.00000     10.08843     53.93270      3.08940
  350 1     5      0.00000     13.83642     52.26826      4.88556
  351 1     5      0.00000     15.93194     51.44801      5.66988
  352 1     5      0.00000     10.08843     23.99670     33.02540
  353 1     5      0.00000     13.83642     22.33226     34.82156
  354 1     5      0.00000     15.93194     21.51201     35.60588
  355 1     5      0.00000     40.02443     53.93270     33.02540
  356 1     5      0.00000     43.77242     52.26826     34.82156
  357 1     5      0.00000     45.86794     51.44801     35.60588
  358 1     5      0.00000     40.02443     23.99670      3.08940
  359 1     5      0.00000     43.77242     22.33226      4.88556
  360 1     5      0.00000     45.86794     21.51201      5.66988
  361 1     5      0.00000     49.78357      5.93930      3.08940
  362 1     5      0.00000     46.03558      7.60374      4.88556
  363 1     5      0.00000     43.94006      8.42399      5.66988
  364 1     5      0.00000     49.78357     35.87530     33.02540
  365 1     5      0.00000     46.03558     37.53974     34.82156
  366 1     5      0.00000     43.94006     38.35999     35.60588
  367 1     5      0.00000     19.84757      5.93930     33.02540
  368 1     5      0.00000     16.09958      7.60374     34.82156
  369 1     5      0.00000     14.00406      8.42399     35.60588
  370 1     5      0.00000     19.84757     35.87530      3.08940
  371 1     5      0.00000     16.09958     37.53974      4.88556
  372 1     5      0.00000     14.00406     38.35999      5.66988
  373 1     5      0.00000     49.78357     53.93270     56.78260
  374 1     5      0.00000     46.03558     52.26826     54.98644
  375 1     5      0.00000     43.94006     51.44801     54.20212
  376 1     5      0.00000     49.78357     23.99670     26.84660
  377 1     5      0.00000     46.03558     22.33226     25.05044
  378 1     5      0.00000     43.94006     21.51201     24.26612
  379 1     5      0.00000     19.84757     53.93270     26.84660
  380 1     5      0.00000     16.09958     52.26826     25.05044
  381 1     5      0.00000     14.00406     51.44801     24.26612
  382 1     5      0.00000     19.84757     23.99670     56.78260
  383 1     5      0.00000     16.09958     22.33226     54.98644
  384 1     5      0.00000     14.00406     21.51201     54.20212
  385 1     5      0.00000     56.78260     53.93270     49.78357
  386 1     5      0.00000     54.98644     52.26826     46.03558
  387 1     5      0.00000     54.20212     51.44801     43.94006
  388 1     5      0.00000     56.78260     23.99670     19.84757
  389 1     5      0.00000     54.98644     22.33226     16.09958
  390 1     5      0.00000     54.20212     21.51201     14.00406
  391 1     5      0.00000     26.84660     53.93270     19.84757
  392 1     5      0.00000     25.05044     52.26826     16.09958
  393 1     5      0.00000     24.26612     51.44801     14.00406
  394 1     5      0.00000     26.84660     23.99670     49.78357
  395 1     5      0.00000     25.05044     22.33226     46.03558
  396 1     5      0.00000     24.26612     21.51201     43.94006
  397 1     5      0.00000      3.08940      5.93930     49.78357
  398 1     5      0.00000      4.88556      7.60374     46.03558
  399 1     5      0.00000      5.66988      8.42399     43.94006
  400 1     5      0.00000      3.08940     35.87530     19.84757
  401 1     5      0.00000      4.88556     37.53974     16.09958
  402 1     5      0.00000      5.66988     38.35999     14.00406
  403 1     5      0.00000     33.02540      5.93930     19.84757
  404 1     5      0.00000     34.82156      7.60374     16.09958
  405 1     5      0.00000     35.60588      8.42399     14.00406
  406 1     5      0.00000     33.02540     35.87530     49.78357
  407 1     5      0.00000     34.82156     37.53974     46.03558
  408 1     5      0.00000     35.60588     38.35999     43.94006
  409 1     5      0.00000      3.08940     53.93270     10.08843
  410 1     5      0.00000      4.88556     52.26826     13.83642