Created by Ryther's code on 2024-12-08 14:35:26.267651

    600 atoms
    696 bonds
    1224 angles
    1536 dihedrals
    360 impropers

    6 atom types
    12 bond types
    25 angle types
    8 dihedral types
    3 improper types

0.00000000 26.6407 xlo xhi
0.00000000 23.07152297 ylo yhi
0.00000000 18.4882 zlo zhi
-13.32035 0.0 0.0 xy xz yz 

Masses 

    1    12.0107
    2    12.0107
    3    1.00794
    4    14.0067
    5    15.9994
    6      65.38

Pair Coeffs

    1       0.10500      3.43085 # C_2 C_2
    2       0.10500      3.43085 # C_R C_R
    3       0.04400      2.57113 # H_ H_
    4       0.06900      3.26069 # N_R N_R
    5       0.06000      3.11815 # O_1 O_1
    6       0.12400      2.46155 # Zn3f2 Zn3f2

Bond Coeffs

    1     118.05951      2.10756 # N_R Zn3f2 bond order=0.5
    2     357.44038      1.08142 # C_R H_ bond order=1.0
    3     354.48390      1.08442 # C_2 H_ bond order=1.0
    4     663.66675      1.34507 # C_R N_R bond order=1.5
    5     751.73006      1.29035 # C_R N_R bond order=2.0
    6     462.65505      1.37926 # C_R C_R bond order=1.5
    7     747.01382      1.29306 # C_2 N_R bond order=2.0
    8     386.87361      1.46400 # C_2 C_2 bond order=1.0
    9     561.44721      1.42220 # C_R N_R bond order=1.0
    10    621.88047      1.24977 # C_2 C_2 bond order=3.0
    11    557.92466      1.42518 # C_2 N_R bond order=1.0
    12    968.67061      1.26107 # N_R O_1 bond order=1.5

Angle Coeffs

    1  fourier                140.55920      0.34375      0.37500      0.28125 # N_R Zn3f2 N_R
    2  cosine/periodic         79.78069           -1            3 # H_ C_R N_R
    3  cosine/periodic        212.40917           -1            3 # N_R C_R N_R
    4  cosine/periodic        163.13092           -1            3 # C_R C_R N_R
    5  cosine/periodic        111.29751           -1            3 # C_R C_R C_R
    6  cosine/periodic         57.28902           -1            3 # C_R C_R H_
    7  cosine/periodic         85.27076           -1            3 # H_ C_2 N_R
    8  cosine/periodic         51.07071           -1            3 # C_2 C_2 H_
    9  cosine/periodic        147.56914           -1            3 # C_2 C_2 N_R
    10 cosine/periodic        225.79010           -1            3 # N_R C_R N_R
    11 cosine/periodic        141.32633           -1            3 # C_R C_R N_R
    12 cosine/periodic         67.96197           -1            3 # C_2 C_2 H_
    13 cosine/periodic         71.49559           -1            3 # H_ C_2 N_R
    14 cosine/periodic        161.48479           -1            3 # C_2 C_2 N_R
    15 cosine/periodic         36.45900           -1            3 # C_R N_R Zn3f2
    16 cosine/periodic         37.80147           -1            3 # C_R N_R Zn3f2
    17 cosine/periodic        127.56007           -1            3 # C_R N_R C_R
    18 cosine/periodic         37.73440           -1            3 # C_2 N_R Zn3f2
    19 cosine/periodic        127.17441           -1            3 # C_2 N_R C_R
    20 cosine/periodic        169.15815           -1            3 # C_R N_R O_1
    21 cosine/periodic        210.67420           -1            3 # O_1 N_R O_1
    22 cosine/periodic         34.61475           -1            3 # C_R N_R Zn3f2
    23 cosine/periodic        110.13309           -1            3 # C_R N_R C_R
    24 cosine/periodic         34.54456           -1            3 # C_2 N_R Zn3f2
    25 cosine/periodic        109.76876           -1            3 # C_2 N_R C_R

Dihedral Coeffs

    1       3.36856           -1            2 # X C_R N_R X bond order=1.5
    2       4.87169           -1            2 # X C_R N_R X bond order=2.0
    3       3.36856           -1            2 # X C_R C_R X bond order=1.5
    4       4.87169           -1            2 # X C_2 N_R X bond order=2.0
    5       1.25000           -1            2 # X C_2 C_2 X bond order=1.0
    6       1.25000           -1            2 # X C_R N_R X bond order=1.0
    7       6.99025           -1            2 # X C_2 C_2 X bond order=3.0
    8       1.25000           -1            2 # X C_2 N_R X bond order=1.0

Improper Coeffs

    1       2.00000      1.00000     -1.00000      0.00000            1 # C_R X X X O_2 present=False
    2       2.00000      1.00000     -1.00000      0.00000            1 # C_2 X X X O_2 present=False
    3       2.00000      1.00000     -1.00000      0.00000            1 # N_R X X X O_2 present=False

Atoms

    1 1     6      0.00000     -2.97763     10.15147     10.85590
    2 1     6      0.00000      6.01773     15.41708     10.85590
    3 1     6      0.00000     -3.04010     20.57449     10.85590
    4 1     6      0.00000     16.29798     12.92005      1.61180
    5 1     6      0.00000      7.30262      7.65444      1.61180
    6 1     6      0.00000     16.36045      2.49703      1.61180
    7 1     6      0.00000     10.28025      2.49703      7.63230
    8 1     6      0.00000     10.34272     12.92005      7.63230
    9 1     6      0.00000     19.33808      7.65444      7.63230
   10 1     6      0.00000      3.04010     20.57449     16.87640
   11 1     6      0.00000      2.97763     10.15147     16.87640
   12 1     6      0.00000     -6.01773     15.41708     16.87640
   13 1     6      0.00000     16.29798     12.92005      7.63230
   14 1     6      0.00000      7.30262      7.65444      7.63230
   15 1     6      0.00000     16.36045      2.49703      7.63230
   16 1     6      0.00000     -2.97763     10.15147     16.87640
   17 1     6      0.00000      6.01773     15.41708     16.87640
   18 1     6      0.00000     -3.04010     20.57449     16.87640
   19 1     6      0.00000      3.04010     20.57449     10.85590
   20 1     6      0.00000      2.97763     10.15147     10.85590
   21 1     6      0.00000     -6.01773     15.41708     10.85590
   22 1     6      0.00000     10.28025      2.49703      1.61180
   23 1     6      0.00000     10.34272     12.92005      1.61180
   24 1     6      0.00000     19.33808      7.65444      1.61180
   25 1     3      0.00000      0.00133     10.19992     11.78438
   26 1     3      0.00000      4.48629     17.97272     11.78438
   27 1     3      0.00000     -4.48763     17.97041     11.78438
   28 1     3      0.00000     13.31902     12.87160      2.54028
   29 1     3      0.00000      8.83406      5.09881      2.54028
   30 1     3      0.00000     17.80798      5.10111      2.54028
   31 1     3      0.00000      8.83272      5.10111      6.70382
   32 1     3      0.00000     13.32168     12.87160      6.70382
   33 1     3      0.00000     17.80664      5.09881      6.70382
   34 1     3      0.00000      4.48763     17.97041     15.94792
   35 1     3      0.00000     -0.00133     10.19992     15.94792
   36 1     3      0.00000     -4.48629     17.97272     15.94792
   37 1     3      0.00000     -2.33506      9.93229      7.76504
   38 1     3      0.00000      5.88626     16.08316      7.76504
   39 1     3      0.00000     -3.55121     20.12760      7.76504
   40 1     3      0.00000     15.65541     13.13923     17.00914
   41 1     3      0.00000      7.43409      6.98836     17.00914
   42 1     3      0.00000     16.87156      2.94393     17.00914
   43 1     3      0.00000      9.76914      2.94393     10.72316
   44 1     3      0.00000     10.98529     13.13923     10.72316
   45 1     3      0.00000     19.20661      6.98836     10.72316
   46 1     3      0.00000      3.55121     20.12760      1.47906
   47 1     3      0.00000      2.33506      9.93229      1.47906
   48 1     3      0.00000     -5.88626     16.08316      1.47906
   49 1     3      0.00000     15.65541     13.13923     10.72316
   50 1     3      0.00000      7.43409      6.98836     10.72316
   51 1     3      0.00000     16.87156      2.94393     10.72316
   52 1     3      0.00000     -2.33506      9.93229      1.47906
   53 1     3      0.00000      5.88626     16.08316      1.47906
   54 1     3      0.00000     -3.55121     20.12760      1.47906
   55 1     3      0.00000      3.55121     20.12760      7.76504
   56 1     3      0.00000      2.33506      9.93229      7.76504
   57 1     3      0.00000     -5.88626     16.08316      7.76504
   58 1     3      0.00000      9.76914      2.94393     17.00914
   59 1     3      0.00000     10.98529     13.13923     17.00914
   60 1     3      0.00000     19.20661      6.98836     17.00914
   61 1     3      0.00000     -1.16686      9.72234      5.75353
   62 1     3      0.00000      5.48399     17.19982      5.75353
   63 1     3      0.00000     -4.31713     19.22089      5.75353
   64 1     3      0.00000     14.48721     13.34918     14.99763
   65 1     3      0.00000      7.83636      5.87170     14.99763
   66 1     3      0.00000     17.63748      3.85064     14.99763
   67 1     3      0.00000      9.00322      3.85064     12.73467
   68 1     3      0.00000     12.15349     13.34918     12.73467
   69 1     3      0.00000     18.80434      5.87170     12.73467
   70 1     3      0.00000      4.31713     19.22089      3.49057
   71 1     3      0.00000      1.16686      9.72234      3.49057
   72 1     3      0.00000     -5.48399     17.19982      3.49057
   73 1     3      0.00000     14.48721     13.34918     12.73467
   74 1     3      0.00000      7.83636      5.87170     12.73467
   75 1     3      0.00000     17.63748      3.85064     12.73467
   76 1     3      0.00000     -1.16686      9.72234      3.49057
   77 1     3      0.00000      5.48399     17.19982      3.49057
   78 1     3      0.00000     -4.31713     19.22089      3.49057
   79 1     3      0.00000      4.31713     19.22089      5.75353
   80 1     3      0.00000      1.16686      9.72234      5.75353
   81 1     3      0.00000     -5.48399     17.19982      5.75353
   82 1     3      0.00000      9.00322      3.85064     14.99763
   83 1     3      0.00000     12.15349     13.34918     14.99763
   84 1     3      0.00000     18.80434      5.87170     14.99763
   85 1     3      0.00000     -2.18587     12.61320      9.14611
   86 1     3      0.00000      3.48993     14.87190      9.14611
   87 1     3      0.00000     -1.30406     18.65794      9.14611
   88 1     3      0.00000     15.50622     10.45832     18.39021
   89 1     3      0.00000      9.83042      8.19962     18.39021
   90 1     3      0.00000     14.62441      4.41358     18.39021
   91 1     3      0.00000     12.01629      4.41358      9.34209
   92 1     3      0.00000     11.13448     10.45832      9.34209
   93 1     3      0.00000     16.81028      8.19962      9.34209
   94 1     3      0.00000      1.30406     18.65794      0.09799
   95 1     3      0.00000      2.18587     12.61320      0.09799
   96 1     3      0.00000     -3.48993     14.87190      0.09799
   97 1     3      0.00000     15.50622     10.45832      9.34209
   98 1     3      0.00000      9.83042      8.19962      9.34209
   99 1     3      0.00000     14.62441      4.41358      9.34209
  100 1     3      0.00000     -2.18587     12.61320      0.09799
  101 1     3      0.00000      3.48993     14.87190      0.09799
  102 1     3      0.00000     -1.30406     18.65794      0.09799
  103 1     3      0.00000      1.30406     18.65794      9.14611
  104 1     3      0.00000      2.18587     12.61320      9.14611
  105 1     3      0.00000     -3.48993     14.87190      9.14611
  106 1     3      0.00000     12.01629      4.41358     18.39021
  107 1     3      0.00000     11.13448     10.45832     18.39021
  108 1     3      0.00000     16.81028      8.19962     18.39021
  109 1     3      0.00000     -5.58922      9.68081      9.24410
  110 1     3      0.00000      7.73113     13.39071      9.24410
  111 1     3      0.00000     11.17844      0.00000      9.24410
  112 1     3      0.00000     -7.73113     13.39071      0.00000
  113 1     3      0.00000      5.58922      9.68081      0.00000
  114 1     3      0.00000     15.46226      0.00000      0.00000
  115 1     3      0.00000     -7.73113     13.39071      9.24410
  116 1     3      0.00000      5.58922      9.68081      9.24410
  117 1     3      0.00000     15.46226      0.00000      9.24410
  118 1     3      0.00000     -5.58922      9.68081      0.00000
  119 1     3      0.00000      7.73113     13.39071      0.00000
  120 1     3      0.00000     11.17844      0.00000      0.00000
  121 1     3      0.00000     -1.74097      7.08988     10.56970
  122 1     3      0.00000      8.05082     18.01886     10.56970
  123 1     3      0.00000     -6.30985     21.03431     10.56970
  124 1     3      0.00000     15.06132     15.98164      1.32560
  125 1     3      0.00000      5.26953      5.05266      1.32560
  126 1     3      0.00000     19.63020      2.03722      1.32560
  127 1     3      0.00000      7.01050      2.03722      7.91850
  128 1     3      0.00000     11.57938     15.98164      7.91850
  129 1     3      0.00000     21.37117      5.05266      7.91850
  130 1     3      0.00000      6.30985     21.03431     17.16260
  131 1     3      0.00000      1.74097      7.08988     17.16260
  132 1     3      0.00000     -8.05082     18.01886     17.16260
  133 1     3      0.00000     15.06132     15.98164      7.91850
  134 1     3      0.00000      5.26953      5.05266      7.91850
  135 1     3      0.00000     19.63020      2.03722      7.91850
  136 1     3      0.00000     -1.74097      7.08988     17.16260
  137 1     3      0.00000      8.05082     18.01886     17.16260
  138 1     3      0.00000     -6.30985     21.03431     17.16260
  139 1     3      0.00000      6.30985     21.03431     10.56970
  140 1     3      0.00000      1.74097      7.08988     10.56970
  141 1     3      0.00000     -8.05082     18.01886     10.56970
  142 1     3      0.00000      7.01050      2.03722      1.32560
  143 1     3      0.00000     11.57938     15.98164      1.32560
  144 1     3      0.00000     21.37117      5.05266      1.32560
  145 1     3      0.00000     -1.59578      4.85425      9.81723
  146 1     3      0.00000      9.91434     19.26241      9.81723
  147 1     3      0.00000     -8.31856     22.02638      9.81723
  148 1     3      0.00000     14.91613     18.21727      0.57313
  149 1     3      0.00000      3.40601      3.80911      0.57313
  150 1     3      0.00000     21.63891      1.04514      0.57313
  151 1     3      0.00000      5.00179      1.04514      8.67097
  152 1     3      0.00000     11.72457     18.21727      8.67097
  153 1     3      0.00000     23.23469      3.80911      8.67097
  154 1     3      0.00000      8.31856     22.02638     17.91507
  155 1     3      0.00000      1.59578      4.85425     17.91507
  156 1     3      0.00000     -9.91434     19.26241     17.91507
  157 1     3      0.00000     14.91613     18.21727      8.67097
  158 1     3      0.00000      3.40601      3.80911      8.67097
  159 1     3      0.00000     21.63891      1.04514      8.67097
  160 1     3      0.00000     -1.59578      4.85425     17.91507
  161 1     3      0.00000      9.91434     19.26241     17.91507
  162 1     3      0.00000     -8.31856     22.02638     17.91507
  163 1     3      0.00000      8.31856     22.02638      9.81723
  164 1     3      0.00000      1.59578      4.85425      9.81723
  165 1     3      0.00000     -9.91434     19.26241      9.81723
  166 1     3      0.00000      5.00179      1.04514      0.57313
  167 1     3      0.00000     11.72457     18.21727      0.57313
  168 1     3      0.00000     23.23469      3.80911      0.57313
  169 1     3      0.00000     -3.95348      7.65975     12.74761
  170 1     3      0.00000      8.66356     15.81784     12.74761
  171 1     3      0.00000     -4.71008     22.66546     12.74761
  172 1     3      0.00000     17.27383     15.41178      3.50351
  173 1     3      0.00000      4.65679      7.25369      3.50351
  174 1     3      0.00000     18.03043      0.40606      3.50351
  175 1     3      0.00000      8.61027      0.40606      5.74059
  176 1     3      0.00000      9.36687     15.41178      5.74059
  177 1     3      0.00000     21.98391      7.25369      5.74059
  178 1     3      0.00000      4.71008     22.66546     14.98469
  179 1     3      0.00000      3.95348      7.65975     14.98469
  180 1     3      0.00000     -8.66356     15.81784     14.98469
  181 1     3      0.00000     17.27383     15.41178      5.74059
  182 1     3      0.00000      4.65679      7.25369      5.74059
  183 1     3      0.00000     18.03043      0.40606      5.74059
  184 1     3      0.00000     -3.95348      7.65975     14.98469
  185 1     3      0.00000      8.66356     15.81784     14.98469
  186 1     3      0.00000     -4.71008     22.66546     14.98469
  187 1     3      0.00000      4.71008     22.66546     12.74761
  188 1     3      0.00000      3.95348      7.65975     12.74761
  189 1     3      0.00000     -8.66356     15.81784     12.74761
  190 1     3      0.00000      8.61027      0.40606      3.50351
  191 1     3      0.00000      9.36687     15.41178      3.50351
  192 1     3      0.00000     21.98391      7.25369      3.50351
  193 1     2      0.00000      0.00133     10.12609     10.83778
  194 1     2      0.00000      4.55023     18.00963     10.83778
  195 1     2      0.00000     -4.55156     18.00732     10.83778
  196 1     2      0.00000     13.31902     12.94543      1.59368
  197 1     2      0.00000      8.77012      5.06189      1.59368
  198 1     2      0.00000     17.87191      5.06420      1.59368
  199 1     2      0.00000      8.76879      5.06420      7.65042
  200 1     2      0.00000     13.32168     12.94543      7.65042
  201 1     2      0.00000     17.87058      5.06189      7.65042
  202 1     2      0.00000      4.55156     18.00732     16.89452
  203 1     2      0.00000     -0.00133     10.12609     16.89452
  204 1     2      0.00000     -4.55023     18.00963     16.89452
  205 1     2      0.00000     -0.69399      9.95998      8.96678
  206 1     2      0.00000      5.04175     17.49052      8.96678
  207 1     2      0.00000     -4.34776     18.69255      8.96678
  208 1     2      0.00000     14.01434     13.11155     18.21088
  209 1     2      0.00000      8.27860      5.58100     18.21088
  210 1     2      0.00000     17.66811      4.37898     18.21088
  211 1     2      0.00000      8.97259      4.37898      9.52142
  212 1     2      0.00000     12.62636     13.11155      9.52142
  213 1     2      0.00000     18.36210      5.58100      9.52142
  214 1     2      0.00000      4.34776     18.69255      0.27732
  215 1     2      0.00000      0.69399      9.95998      0.27732
  216 1     2      0.00000     -5.04175     17.49052      0.27732
  217 1     2      0.00000     14.01434     13.11155      9.52142
  218 1     2      0.00000      8.27860      5.58100      9.52142
  219 1     2      0.00000     17.66811      4.37898      9.52142
  220 1     2      0.00000     -0.69399      9.95998      0.27732
  221 1     2      0.00000      5.04175     17.49052      0.27732
  222 1     2      0.00000     -4.34776     18.69255      0.27732
  223 1     2      0.00000      4.34776     18.69255      8.96678
  224 1     2      0.00000      0.69399      9.95998      8.96678
  225 1     2      0.00000     -5.04175     17.49052      8.96678
  226 1     2      0.00000      8.97259      4.37898     18.21088
  227 1     2      0.00000     12.62636     13.11155     18.21088
  228 1     2      0.00000     18.36210      5.58100     18.21088
  229 1     2      0.00000     -1.38398      9.89999      7.76689
  230 1     2      0.00000      5.43870     16.92296      7.76689
  231 1     2      0.00000     -4.05471     19.32009      7.76689
  232 1     2      0.00000     14.70433     13.17153     17.01099
  233 1     2      0.00000      7.88165      6.14856     17.01099
  234 1     2      0.00000     17.37506      3.75143     17.01099
  235 1     2      0.00000      9.26564      3.75143     10.72131
  236 1     2      0.00000     11.93637     13.17153     10.72131
  237 1     2      0.00000     18.75905      6.14856     10.72131
  238 1     2      0.00000      4.05471     19.32009      1.47721
  239 1     2      0.00000      1.38398      9.89999      1.47721
  240 1     2      0.00000     -5.43870     16.92296      1.47721
  241 1     2      0.00000     14.70433     13.17153     10.72131
  242 1     2      0.00000      7.88165      6.14856     10.72131
  243 1     2      0.00000     17.37506      3.75143     10.72131
  244 1     2      0.00000     -1.38398      9.89999      1.47721
  245 1     2      0.00000      5.43870     16.92296      1.47721
  246 1     2      0.00000     -4.05471     19.32009      1.47721
  247 1     2      0.00000      4.05471     19.32009      7.76689
  248 1     2      0.00000      1.38398      9.89999      7.76689
  249 1     2      0.00000     -5.43870     16.92296      7.76689
  250 1     2      0.00000      9.26564      3.75143     17.01099
  251 1     2      0.00000     11.93637     13.17153     17.01099
  252 1     2      0.00000     18.75905      6.14856     17.01099
  253 1     2      0.00000     -0.69266      9.79617      6.57256
  254 1     2      0.00000      5.18295     17.57358      6.57256
  255 1     2      0.00000     -4.49029     18.77330      6.57256
  256 1     2      0.00000     14.01301     13.27535     15.81666
  257 1     2      0.00000      8.13740      5.49794     15.81666
  258 1     2      0.00000     17.81064      4.29822     15.81666
  259 1     2      0.00000      8.83006      4.29822     11.91564
  260 1     2      0.00000     12.62769     13.27535     11.91564
  261 1     2      0.00000     18.50330      5.49794     11.91564
  262 1     2      0.00000      4.49029     18.77330      2.67154
  263 1     2      0.00000      0.69266      9.79617      2.67154
  264 1     2      0.00000     -5.18295     17.57358      2.67154
  265 1     2      0.00000     14.01301     13.27535     11.91564
  266 1     2      0.00000      8.13740      5.49794     11.91564
  267 1     2      0.00000     17.81064      4.29822     11.91564
  268 1     2      0.00000     -0.69266      9.79617      2.67154
  269 1     2      0.00000      5.18295     17.57358      2.67154
  270 1     2      0.00000     -4.49029     18.77330      2.67154
  271 1     2      0.00000      4.49029     18.77330      6.57256
  272 1     2      0.00000      0.69266      9.79617      6.57256
  273 1     2      0.00000     -5.18295     17.57358      6.57256
  274 1     2      0.00000      8.83006      4.29822     15.81666
  275 1     2      0.00000     12.62769     13.27535     15.81666
  276 1     2      0.00000     18.50330      5.49794     15.81666
  277 1     1      0.00000     -3.01839     12.76317      9.57689
  278 1     1      0.00000      3.77632     14.07594      9.57689
  279 1     1      0.00000     -0.75793     19.30394      9.57689
  280 1     1      0.00000     16.33874     10.30836      0.33279
  281 1     1      0.00000      9.54403      8.99559      0.33279
  282 1     1      0.00000     14.07828      3.76758      0.33279
  283 1     1      0.00000     12.56242      3.76758      8.91131
  284 1     1      0.00000     10.30196     10.30836      8.91131
  285 1     1      0.00000     17.09667      8.99559      8.91131
  286 1     1      0.00000      0.75793     19.30394     18.15541
  287 1     1      0.00000      3.01839     12.76317     18.15541
  288 1     1      0.00000     -3.77632     14.07594     18.15541
  289 1     1      0.00000     16.33874     10.30836      8.91131
  290 1     1      0.00000      9.54403      8.99559      8.91131
  291 1     1      0.00000     14.07828      3.76758      8.91131
  292 1     1      0.00000     -3.01839     12.76317     18.15541
  293 1     1      0.00000      3.77632     14.07594     18.15541
  294 1     1      0.00000     -0.75793     19.30394     18.15541
  295 1     1      0.00000      0.75793     19.30394      9.57689
  296 1     1      0.00000      3.01839     12.76317      9.57689
  297 1     1      0.00000     -3.77632     14.07594      9.57689
  298 1     1      0.00000     12.56242      3.76758      0.33279
  299 1     1      0.00000     10.30196     10.30836      0.33279
  300 1     1      0.00000     17.09667      8.99559      0.33279
  301 1     2      0.00000     -4.75403     12.63627     10.68063
  302 1     2      0.00000      4.75403     12.63627     10.68063
  303 1     2      0.00000      0.00000     20.87050     10.68063
  304 1     2      0.00000     18.07438     10.43525      1.43653
  305 1     2      0.00000      8.56632     10.43525      1.43653
  306 1     2      0.00000     13.32035      2.20102      1.43653
  307 1     2      0.00000     13.32035      2.20102      7.80757
  308 1     2      0.00000      8.56632     10.43525      7.80757
  309 1     2      0.00000     18.07438     10.43525      7.80757
  310 1     2      0.00000      0.00000     20.87050     17.05167
  311 1     2      0.00000      4.75403     12.63627     17.05167
  312 1     2      0.00000     -4.75403     12.63627     17.05167
  313 1     2      0.00000     -5.11368      8.85716      9.24410
  314 1     2      0.00000      8.20667     14.21437      9.24410
  315 1     2      0.00000     10.22736      0.00000      9.24410
  316 1     2      0.00000     -8.20667     14.21437      0.00000
  317 1     2      0.00000      5.11368      8.85716      0.00000
  318 1     2      0.00000     16.41334      0.00000      0.00000
  319 1     2      0.00000     -8.20667     14.21437      9.24410
  320 1     2      0.00000      5.11368      8.85716      9.24410
  321 1     2      0.00000     16.41334      0.00000      9.24410
  322 1     2      0.00000     -5.11368      8.85716      0.00000
  323 1     2      0.00000      8.20667     14.21437      0.00000
  324 1     2      0.00000     10.22736      0.00000      0.00000
  325 1     2      0.00000     -3.57385      7.44057      9.63235
  326 1     2      0.00000      8.66356     16.25620      9.63235
  327 1     2      0.00000     -5.08971     22.44628      9.63235
  328 1     2      0.00000     16.89420     15.63096      0.38825
  329 1     2      0.00000      4.65679      6.81533      0.38825
  330 1     2      0.00000     18.41006      0.62524      0.38825
  331 1     2      0.00000      8.23064      0.62524      8.85585
  332 1     2      0.00000      9.74650     15.63096      8.85585
  333 1     2      0.00000     21.98391      6.81533      8.85585
  334 1     2      0.00000      5.08971     22.44628     18.09995
  335 1     2      0.00000      3.57385      7.44057     18.09995
  336 1     2      0.00000     -8.66356     16.25620     18.09995
  337 1     2      0.00000     16.89420     15.63096      8.85585
  338 1     2      0.00000      4.65679      6.81533      8.85585
  339 1     2      0.00000     18.41006      0.62524      8.85585
  340 1     2      0.00000     -3.57385      7.44057     18.09995
  341 1     2      0.00000      8.66356     16.25620     18.09995
  342 1     2      0.00000     -5.08971     22.44628     18.09995
  343 1     2      0.00000      5.08971     22.44628      9.63235
  344 1     2      0.00000      3.57385      7.44057      9.63235
  345 1     2      0.00000     -8.66356     16.25620      9.63235
  346 1     2      0.00000      8.23064      0.62524      0.38825
  347 1     2      0.00000      9.74650     15.63096      0.38825
  348 1     2      0.00000     21.98391      6.81533      0.38825
  349 1     2      0.00000     -2.42830      6.70228     10.03909
  350 1     2      0.00000      8.73016     17.61741     10.03909
  351 1     2      0.00000     -6.30186     21.82335     10.03909
  352 1     2      0.00000     15.74865     16.36925      0.79499
  353 1     2      0.00000      4.59019      5.45411      0.79499
  354 1     2      0.00000     19.62221      1.24817      0.79499
  355 1     2      0.00000      7.01849      1.24817      8.44911
  356 1     2      0.00000     10.89205     16.36925      8.44911
  357 1     2      0.00000     22.05051      5.45411      8.44911
  358 1     2      0.00000      6.30186     21.82335     17.69321
  359 1     2      0.00000      2.42830      6.70228     17.69321
  360 1     2      0.00000     -8.73016     17.61741     17.69321
  361 1     2      0.00000     15.74865     16.36925      8.44911
  362 1     2      0.00000      4.59019      5.45411      8.44911
  363 1     2      0.00000     19.62221      1.24817      8.44911
  364 1     2      0.00000     -2.42830      6.70228     17.69321
  365 1     2      0.00000      8.73016     17.61741     17.69321
  366 1     2      0.00000     -6.30186     21.82335     17.69321
  367 1     2      0.00000      6.30186     21.82335     10.03909
  368 1     2      0.00000      2.42830      6.70228     10.03909
  369 1     2      0.00000     -8.73016     17.61741     10.03909
  370 1     2      0.00000      7.01849      1.24817      0.79499
  371 1     2      0.00000     10.89205     16.36925      0.79499
  372 1     2      0.00000     22.05051      5.45411      0.79499
  373 1     2      0.00000     -2.37102      5.36644      9.61571
  374 1     2      0.00000      9.85839     18.33494      9.61571
  375 1     2      0.00000     -7.48737     22.44167      9.61571
  376 1     2      0.00000     15.69137     17.70509      0.37161
  377 1     2      0.00000      3.46196      4.73658      0.37161
  378 1     2      0.00000     20.80772      0.62985      0.37161
  379 1     2      0.00000      5.83298      0.62985      8.87249
  380 1     2      0.00000     10.94933     17.70509      8.87249
  381 1     2      0.00000     23.17874      4.73658      8.87249
  382 1     2      0.00000      7.48737     22.44167     18.11659
  383 1     2      0.00000      2.37102      5.36644     18.11659
  384 1     2      0.00000     -9.85839     18.33494     18.11659
  385 1     2      0.00000     15.69137     17.70509      8.87249
  386 1     2      0.00000      3.46196      4.73658      8.87249
  387 1     2      0.00000     20.80772      0.62985      8.87249