Created by Ryther's code on 2024-12-06 13:40:50.872181

    624 atoms
    792 bonds
    1536 angles
    1536 dihedrals
    288 impropers

    4 atom types
    6 bond types
    8 angle types
    3 dihedral types
    2 improper types

0.00000000 26.343 xlo xhi
0.00000000 26.343 ylo yhi
0.00000000 26.343 zlo zhi
0.0 0.0 0.0 xy xz yz 

Masses 

    1    12.0107
    2     63.546
    3    1.00794
    4    15.9994

Pair Coeffs

    1       0.10500      3.43085 # C_R C_R
    2       0.00500      3.11369 # Cu4+2 Cu4+2
    3       0.04400      2.57113 # H_ H_
    4       0.06000      3.11815 # O_2_M O_2_M

Bond Coeffs

    1     165.69608      2.00798 # Cu4+2 O_2_M bond order=0.5
    2      36.72975      3.03272 # Cu4+2 Cu4+2 bond order=0.25
    3     357.44038      1.08142 # C_R H_ bond order=1.0
    4     714.55744      1.26901 # C_R O_2_M bond order=1.5
    5     391.66951      1.45800 # C_R C_R bond order=1.0
    6     462.65505      1.37926 # C_R C_R bond order=1.5

Angle Coeffs

    1      38.49981            1            4 # Cu4+2 Cu4+2 O_2_M
    2     115.06366            1            4 # O_2_M Cu4+2 O_2_M
    3     137.71425           -1            3 # C_R C_R O_2_M
    4     206.77843           -1            3 # O_2_M C_R O_2_M
    5     102.18328           -1            3 # C_R C_R C_R
    6     111.29751           -1            3 # C_R C_R C_R
    7      57.28902           -1            3 # C_R C_R H_
    8      57.09052           -1            3 # C_R O_2_M Cu4+2

Dihedral Coeffs

    1       6.73711           -1            2 # X C_R O_2_M X bond order=1.5
    2       1.25000           -1            2 # X C_R C_R X bond order=1.0
    3       3.36856           -1            2 # X C_R C_R X bond order=1.5

Improper Coeffs

    1      16.66667      1.00000     -1.00000      0.00000            1 # C_R X X X O_2 present=True
    2       2.00000      1.00000     -1.00000      0.00000            1 # C_R X X X O_2 present=False

Atoms

    1 1     2      0.00000      7.51566      7.51566      0.00000
    2 1     2      0.00000     18.82734     18.82734      0.00000
    3 1     2      0.00000     18.82734      7.51566      0.00000
    4 1     2      0.00000      7.51566     18.82734      0.00000
    5 1     2      0.00000      0.00000      7.51566      7.51566
    6 1     2      0.00000      0.00000     18.82734     18.82734
    7 1     2      0.00000      0.00000     18.82734      7.51566
    8 1     2      0.00000      0.00000      7.51566     18.82734
    9 1     2      0.00000      7.51566      0.00000      7.51566
   10 1     2      0.00000     18.82734      0.00000     18.82734
   11 1     2      0.00000      7.51566      0.00000     18.82734
   12 1     2      0.00000     18.82734      0.00000      7.51566
   13 1     2      0.00000      7.51566     20.68716     13.17150
   14 1     2      0.00000     18.82734      5.65584     13.17150
   15 1     2      0.00000     18.82734     20.68716     13.17150
   16 1     2      0.00000      7.51566      5.65584     13.17150
   17 1     2      0.00000      0.00000     20.68716     20.68716
   18 1     2      0.00000      0.00000      5.65584      5.65584
   19 1     2      0.00000      0.00000      5.65584     20.68716
   20 1     2      0.00000      0.00000     20.68716      5.65584
   21 1     2      0.00000      7.51566     13.17150     20.68716
   22 1     2      0.00000     18.82734     13.17150      5.65584
   23 1     2      0.00000      7.51566     13.17150      5.65584
   24 1     2      0.00000     18.82734     13.17150     20.68716
   25 1     2      0.00000     20.68716      7.51566     13.17150
   26 1     2      0.00000      5.65584     18.82734     13.17150
   27 1     2      0.00000      5.65584      7.51566     13.17150
   28 1     2      0.00000     20.68716     18.82734     13.17150
   29 1     2      0.00000     13.17150      7.51566     20.68716
   30 1     2      0.00000     13.17150     18.82734      5.65584
   31 1     2      0.00000     13.17150     18.82734     20.68716
   32 1     2      0.00000     13.17150      7.51566      5.65584
   33 1     2      0.00000     20.68716      0.00000     20.68716
   34 1     2      0.00000      5.65584      0.00000      5.65584
   35 1     2      0.00000     20.68716      0.00000      5.65584
   36 1     2      0.00000      5.65584      0.00000     20.68716
   37 1     2      0.00000     20.68716     20.68716      0.00000
   38 1     2      0.00000      5.65584      5.65584      0.00000
   39 1     2      0.00000      5.65584     20.68716      0.00000
   40 1     2      0.00000     20.68716      5.65584      0.00000
   41 1     2      0.00000     13.17150     20.68716      7.51566
   42 1     2      0.00000     13.17150      5.65584     18.82734
   43 1     2      0.00000     13.17150      5.65584      7.51566
   44 1     2      0.00000     13.17150     20.68716     18.82734
   45 1     2      0.00000     20.68716     13.17150      7.51566
   46 1     2      0.00000      5.65584     13.17150     18.82734
   47 1     2      0.00000     20.68716     13.17150     18.82734
   48 1     2      0.00000      5.65584     13.17150      7.51566
   49 1     3      0.00000     10.01561      6.00620     23.18711
   50 1     3      0.00000     16.32739     20.33680     23.18711
   51 1     3      0.00000     16.32739      6.00620      3.15589
   52 1     3      0.00000     10.01561     20.33680      3.15589
   53 1     3      0.00000     23.18711     10.01561      6.00620
   54 1     3      0.00000     23.18711     16.32739     20.33680
   55 1     3      0.00000      3.15589     16.32739      6.00620
   56 1     3      0.00000      3.15589     10.01561     20.33680
   57 1     3      0.00000      6.00620     23.18711     10.01561
   58 1     3      0.00000     20.33680     23.18711     16.32739
   59 1     3      0.00000      6.00620      3.15589     16.32739
   60 1     3      0.00000     20.33680      3.15589     10.01561
   61 1     3      0.00000      6.00620     10.01561      3.15589
   62 1     3      0.00000     20.33680     16.32739      3.15589
   63 1     3      0.00000      6.00620     16.32739     23.18711
   64 1     3      0.00000     20.33680     10.01561     23.18711
   65 1     3      0.00000     10.01561     23.18711     20.33680
   66 1     3      0.00000     16.32739     23.18711      6.00620
   67 1     3      0.00000     16.32739      3.15589     20.33680
   68 1     3      0.00000     10.01561      3.15589      6.00620
   69 1     3      0.00000     23.18711      6.00620     16.32739
   70 1     3      0.00000     23.18711     20.33680     10.01561
   71 1     3      0.00000      3.15589      6.00620     10.01561
   72 1     3      0.00000      3.15589     20.33680     16.32739
   73 1     3      0.00000     16.32739     20.33680      3.15589
   74 1     3      0.00000     10.01561      6.00620      3.15589
   75 1     3      0.00000     10.01561     20.33680     23.18711
   76 1     3      0.00000     16.32739      6.00620     23.18711
   77 1     3      0.00000      3.15589     16.32739     20.33680
   78 1     3      0.00000      3.15589     10.01561      6.00620
   79 1     3      0.00000     23.18711     10.01561     20.33680
   80 1     3      0.00000     23.18711     16.32739      6.00620
   81 1     3      0.00000     20.33680      3.15589     16.32739
   82 1     3      0.00000      6.00620      3.15589     10.01561
   83 1     3      0.00000     20.33680     23.18711     10.01561
   84 1     3      0.00000      6.00620     23.18711     16.32739
   85 1     3      0.00000     20.33680     16.32739     23.18711
   86 1     3      0.00000      6.00620     10.01561     23.18711
   87 1     3      0.00000     20.33680     10.01561      3.15589
   88 1     3      0.00000      6.00620     16.32739      3.15589
   89 1     3      0.00000     16.32739      3.15589      6.00620
   90 1     3      0.00000     10.01561      3.15589     20.33680
   91 1     3      0.00000     10.01561     23.18711      6.00620
   92 1     3      0.00000     16.32739     23.18711     20.33680
   93 1     3      0.00000      3.15589     20.33680     10.01561
   94 1     3      0.00000      3.15589      6.00620     16.32739
   95 1     3      0.00000     23.18711     20.33680     16.32739
   96 1     3      0.00000     23.18711      6.00620     10.01561
   97 1     3      0.00000     10.01561     19.17770     10.01561
   98 1     3      0.00000     16.32739      7.16530     10.01561
   99 1     3      0.00000     16.32739     19.17770     16.32739
  100 1     3      0.00000     10.01561      7.16530     16.32739
  101 1     3      0.00000     23.18711     23.18711     19.17770
  102 1     3      0.00000     23.18711      3.15589      7.16530
  103 1     3      0.00000      3.15589      3.15589     19.17770
  104 1     3      0.00000      3.15589     23.18711      7.16530
  105 1     3      0.00000     10.01561     10.01561      7.16530
  106 1     3      0.00000     16.32739     10.01561     19.17770
  107 1     3      0.00000     16.32739     16.32739      7.16530
  108 1     3      0.00000     10.01561     16.32739     19.17770
  109 1     3      0.00000     23.18711     19.17770      3.15589
  110 1     3      0.00000     23.18711      7.16530     23.18711
  111 1     3      0.00000      3.15589     19.17770     23.18711
  112 1     3      0.00000      3.15589      7.16530      3.15589
  113 1     3      0.00000     16.32739      7.16530     16.32739
  114 1     3      0.00000     10.01561     19.17770     16.32739
  115 1     3      0.00000     10.01561      7.16530     10.01561
  116 1     3      0.00000     16.32739     19.17770     10.01561
  117 1     3      0.00000      3.15589      3.15589      7.16530
  118 1     3      0.00000      3.15589     23.18711     19.17770
  119 1     3      0.00000     23.18711     23.18711      7.16530
  120 1     3      0.00000     23.18711      3.15589     19.17770
  121 1     3      0.00000     16.32739     16.32739     19.17770
  122 1     3      0.00000     10.01561     16.32739      7.16530
  123 1     3      0.00000     10.01561     10.01561     19.17770
  124 1     3      0.00000     16.32739     10.01561      7.16530
  125 1     3      0.00000      3.15589      7.16530     23.18711
  126 1     3      0.00000      3.15589     19.17770      3.15589
  127 1     3      0.00000     23.18711      7.16530      3.15589
  128 1     3      0.00000     23.18711     19.17770     23.18711
  129 1     3      0.00000     19.17770     23.18711     23.18711
  130 1     3      0.00000      7.16530     23.18711      3.15589
  131 1     3      0.00000     19.17770      3.15589      3.15589
  132 1     3      0.00000      7.16530      3.15589     23.18711
  133 1     3      0.00000     19.17770     10.01561     16.32739
  134 1     3      0.00000      7.16530     16.32739     16.32739
  135 1     3      0.00000     19.17770     16.32739     10.01561
  136 1     3      0.00000      7.16530     10.01561     10.01561
  137 1     3      0.00000      7.16530      3.15589      3.15589
  138 1     3      0.00000     19.17770      3.15589     23.18711
  139 1     3      0.00000      7.16530     23.18711     23.18711
  140 1     3      0.00000     19.17770     23.18711      3.15589
  141 1     3      0.00000      7.16530     16.32739     10.01561
  142 1     3      0.00000     19.17770     10.01561     10.01561
  143 1     3      0.00000      7.16530     10.01561     16.32739
  144 1     3      0.00000     19.17770     16.32739     16.32739
  145 1     1      0.00000      7.81860      5.35290     24.53324
  146 1     1      0.00000     18.52440     20.99010     24.53324
  147 1     1      0.00000     18.52440      5.35290      1.80976
  148 1     1      0.00000      7.81860     20.99010      1.80976
  149 1     1      0.00000     24.53324      7.81860      5.35290
  150 1     1      0.00000     24.53324     18.52440     20.99010
  151 1     1      0.00000      1.80976     18.52440      5.35290
  152 1     1      0.00000      1.80976      7.81860     20.99010
  153 1     1      0.00000      5.35290     24.53324      7.81860
  154 1     1      0.00000     20.99010     24.53324     18.52440
  155 1     1      0.00000      5.35290      1.80976     18.52440
  156 1     1      0.00000     20.99010      1.80976      7.81860
  157 1     1      0.00000      5.35290      7.81860      1.80976
  158 1     1      0.00000     20.99010     18.52440      1.80976
  159 1     1      0.00000      5.35290     18.52440     24.53324
  160 1     1      0.00000     20.99010      7.81860     24.53324
  161 1     1      0.00000      7.81860     24.53324     20.99010
  162 1     1      0.00000     18.52440     24.53324      5.35290
  163 1     1      0.00000     18.52440      1.80976     20.99010
  164 1     1      0.00000      7.81860      1.80976      5.35290
  165 1     1      0.00000     24.53324      5.35290     18.52440
  166 1     1      0.00000     24.53324     20.99010      7.81860
  167 1     1      0.00000      1.80976      5.35290      7.81860
  168 1     1      0.00000      1.80976     20.99010     18.52440
  169 1     1      0.00000     18.52440     20.99010      1.80976
  170 1     1      0.00000      7.81860      5.35290      1.80976
  171 1     1      0.00000      7.81860     20.99010     24.53324
  172 1     1      0.00000     18.52440      5.35290     24.53324
  173 1     1      0.00000      1.80976     18.52440     20.99010
  174 1     1      0.00000      1.80976      7.81860      5.35290
  175 1     1      0.00000     24.53324      7.81860     20.99010
  176 1     1      0.00000     24.53324     18.52440      5.35290
  177 1     1      0.00000     20.99010      1.80976     18.52440
  178 1     1      0.00000      5.35290      1.80976      7.81860
  179 1     1      0.00000     20.99010     24.53324      7.81860
  180 1     1      0.00000      5.35290     24.53324     18.52440
  181 1     1      0.00000     20.99010     18.52440     24.53324
  182 1     1      0.00000      5.35290      7.81860     24.53324
  183 1     1      0.00000     20.99010      7.81860      1.80976
  184 1     1      0.00000      5.35290     18.52440      1.80976
  185 1     1      0.00000     18.52440      1.80976      5.35290
  186 1     1      0.00000      7.81860      1.80976     20.99010
  187 1     1      0.00000      7.81860     24.53324      5.35290
  188 1     1      0.00000     18.52440     24.53324     20.99010
  189 1     1      0.00000      1.80976     20.99010      7.81860
  190 1     1      0.00000      1.80976      5.35290     18.52440
  191 1     1      0.00000     24.53324     20.99010     18.52440
  192 1     1      0.00000     24.53324      5.35290      7.81860
  193 1     1      0.00000      7.81860     18.52440     11.36174
  194 1     1      0.00000     18.52440      7.81860     11.36174
  195 1     1      0.00000     18.52440     18.52440     14.98126
  196 1     1      0.00000      7.81860      7.81860     14.98126
  197 1     1      0.00000      5.35290     11.36174     20.99010
  198 1     1      0.00000     20.99010     11.36174      5.35290
  199 1     1      0.00000      5.35290     14.98126      5.35290
  200 1     1      0.00000     20.99010     14.98126     20.99010
  201 1     1      0.00000      5.35290     20.99010     14.98126
  202 1     1      0.00000     20.99010      5.35290     14.98126
  203 1     1      0.00000      5.35290      5.35290     11.36174
  204 1     1      0.00000     20.99010     20.99010     11.36174
  205 1     1      0.00000      7.81860     11.36174      7.81860
  206 1     1      0.00000     18.52440     11.36174     18.52440
  207 1     1      0.00000     18.52440     14.98126      7.81860
  208 1     1      0.00000      7.81860     14.98126     18.52440
  209 1     1      0.00000     18.52440      7.81860     14.98126
  210 1     1      0.00000      7.81860     18.52440     14.98126
  211 1     1      0.00000      7.81860      7.81860     11.36174
  212 1     1      0.00000     18.52440     18.52440     11.36174
  213 1     1      0.00000     20.99010     14.98126      5.35290
  214 1     1      0.00000      5.35290     14.98126     20.99010
  215 1     1      0.00000     20.99010     11.36174     20.99010
  216 1     1      0.00000      5.35290     11.36174      5.35290
  217 1     1      0.00000     20.99010      5.35290     11.36174
  218 1     1      0.00000      5.35290     20.99010     11.36174
  219 1     1      0.00000     20.99010     20.99010     14.98126
  220 1     1      0.00000      5.35290      5.35290     14.98126
  221 1     1      0.00000     18.52440     14.98126     18.52440
  222 1     1      0.00000      7.81860     14.98126      7.81860
  223 1     1      0.00000      7.81860     11.36174     18.52440
  224 1     1      0.00000     18.52440     11.36174      7.81860
  225 1     1      0.00000     11.36174      7.81860     18.52440
  226 1     1      0.00000     11.36174     18.52440      7.81860
  227 1     1      0.00000     14.98126     18.52440     18.52440
  228 1     1      0.00000     14.98126      7.81860      7.81860
  229 1     1      0.00000     11.36174      5.35290      5.35290
  230 1     1      0.00000     11.36174     20.99010     20.99010
  231 1     1      0.00000     14.98126      5.35290     20.99010
  232 1     1      0.00000     14.98126     20.99010      5.35290
  233 1     1      0.00000     14.98126     18.52440      7.81860
  234 1     1      0.00000     14.98126      7.81860     18.52440
  235 1     1      0.00000     11.36174      7.81860      7.81860
  236 1     1      0.00000     11.36174     18.52440     18.52440
  237 1     1      0.00000     14.98126     20.99010     20.99010
  238 1     1      0.00000     14.98126      5.35290      5.35290
  239 1     1      0.00000     11.36174     20.99010      5.35290
  240 1     1      0.00000     11.36174      5.35290     20.99010
  241 1     1      0.00000      8.48245      4.68905     23.36624
  242 1     1      0.00000     17.86055     21.65395     23.36624
  243 1     1      0.00000     17.86055      4.68905      2.97676
  244 1     1      0.00000      8.48245     21.65395      2.97676
  245 1     1      0.00000     23.36624      8.48245      4.68905
  246 1     1      0.00000     23.36624     17.86055     21.65395
  247 1     1      0.00000      2.97676     17.86055      4.68905
  248 1     1      0.00000      2.97676      8.48245     21.65395
  249 1     1      0.00000      4.68905     23.36624      8.48245
  250 1     1      0.00000     21.65395     23.36624     17.86055
  251 1     1      0.00000      4.68905      2.97676     17.86055
  252 1     1      0.00000     21.65395      2.97676      8.48245
  253 1     1      0.00000      4.68905      8.48245      2.97676
  254 1     1      0.00000     21.65395     17.86055      2.97676
  255 1     1      0.00000      4.68905     17.86055     23.36624
  256 1     1      0.00000     21.65395      8.48245     23.36624
  257 1     1      0.00000      8.48245     23.36624     21.65395
  258 1     1      0.00000     17.86055     23.36624      4.68905
  259 1     1      0.00000     17.86055      2.97676     21.65395
  260 1     1      0.00000      8.48245      2.97676      4.68905
  261 1     1      0.00000     23.36624      4.68905     17.86055
  262 1     1      0.00000     23.36624     21.65395      8.48245
  263 1     1      0.00000      2.97676      4.68905      8.48245
  264 1     1      0.00000      2.97676     21.65395     17.86055
  265 1     1      0.00000     17.86055     21.65395      2.97676
  266 1     1      0.00000      8.48245      4.68905      2.97676
  267 1     1      0.00000      8.48245     21.65395     23.36624
  268 1     1      0.00000     17.86055      4.68905     23.36624
  269 1     1      0.00000      2.97676     17.86055     21.65395
  270 1     1      0.00000      2.97676      8.48245      4.68905
  271 1     1      0.00000     23.36624      8.48245     21.65395
  272 1     1      0.00000     23.36624     17.86055      4.68905
  273 1     1      0.00000     21.65395      2.97676     17.86055
  274 1     1      0.00000      4.68905      2.97676      8.48245
  275 1     1      0.00000     21.65395     23.36624      8.48245
  276 1     1      0.00000      4.68905     23.36624     17.86055
  277 1     1      0.00000     21.65395     17.86055     23.36624
  278 1     1      0.00000      4.68905      8.48245     23.36624
  279 1     1      0.00000     21.65395      8.48245      2.97676
  280 1     1      0.00000      4.68905     17.86055      2.97676
  281 1     1      0.00000     17.86055      2.97676      4.68905
  282 1     1      0.00000      8.48245      2.97676     21.65395
  283 1     1      0.00000      8.48245     23.36624      4.68905
  284 1     1      0.00000     17.86055     23.36624     21.65395
  285 1     1      0.00000      2.97676     21.65395      8.48245
  286 1     1      0.00000      2.97676      4.68905     17.86055
  287 1     1      0.00000     23.36624     21.65395     17.86055
  288 1     1      0.00000     23.36624      4.68905      8.48245
  289 1     1      0.00000      8.48245     17.86055     10.19474
  290 1     1      0.00000     17.86055      8.48245     10.19474
  291 1     1      0.00000     17.86055     17.86055     16.14826
  292 1     1      0.00000      8.48245      8.48245     16.14826
  293 1     1      0.00000      4.68905     10.19474     21.65395
  294 1     1      0.00000     21.65395     10.19474      4.68905
  295 1     1      0.00000      4.68905     16.14826      4.68905
  296 1     1      0.00000     21.65395     16.14826     21.65395
  297 1     1      0.00000      4.68905     21.65395     16.14826
  298 1     1      0.00000     21.65395      4.68905     16.14826
  299 1     1      0.00000      4.68905      4.68905     10.19474
  300 1     1      0.00000     21.65395     21.65395     10.19474
  301 1     1      0.00000      8.48245     10.19474      8.48245
  302 1     1      0.00000     17.86055     10.19474     17.86055
  303 1     1      0.00000     17.86055     16.14826      8.48245
  304 1     1      0.00000      8.48245     16.14826     17.86055
  305 1     1      0.00000     17.86055      8.48245     16.14826
  306 1     1      0.00000      8.48245     17.86055     16.14826
  307 1     1      0.00000      8.48245      8.48245     10.19474
  308 1     1      0.00000     17.86055     17.86055     10.19474
  309 1     1      0.00000     21.65395     16.14826      4.68905
  310 1     1      0.00000      4.68905     16.14826     21.65395
  311 1     1      0.00000     21.65395     10.19474     21.65395
  312 1     1      0.00000      4.68905     10.19474      4.68905
  313 1     1      0.00000     21.65395      4.68905     10.19474
  314 1     1      0.00000      4.68905     21.65395     10.19474
  315 1     1      0.00000     21.65395     21.65395     16.14826
  316 1     1      0.00000      4.68905      4.68905     16.14826
  317 1     1      0.00000     17.86055     16.14826     17.86055
  318 1     1      0.00000      8.48245     16.14826      8.48245
  319 1     1      0.00000      8.48245     10.19474     17.86055
  320 1     1      0.00000     17.86055     10.19474      8.48245
  321 1     1      0.00000     10.19474      8.48245     17.86055
  322 1     1      0.00000     10.19474     17.86055      8.48245
  323 1     1      0.00000     16.14826     17.86055     17.86055
  324 1     1      0.00000     16.14826      8.48245      8.48245
  325 1     1      0.00000     10.19474      4.68905      4.68905
  326 1     1      0.00000     10.19474     21.65395     21.65395
  327 1     1      0.00000     16.14826      4.68905     21.65395
  328 1     1      0.00000     16.14826     21.65395      4.68905
  329 1     1      0.00000     16.14826     17.86055      8.48245
  330 1     1      0.00000     16.14826      8.48245     17.86055
  331 1     1      0.00000     10.19474      8.48245      8.48245
  332 1     1      0.00000     10.19474     17.86055     17.86055
  333 1     1      0.00000     16.14826     21.65395     21.65395
  334 1     1      0.00000     16.14826      4.68905      4.68905
  335 1     1      0.00000     10.19474     21.65395      4.68905
  336 1     1      0.00000     10.19474      4.68905     21.65395
  337 1     1      0.00000      9.62837      5.25279     22.79987
  338 1     1      0.00000     16.71463     21.09021     22.79987
  339 1     1      0.00000     16.71463      5.25279      3.54313
  340 1     1      0.00000      9.62837     21.09021      3.54313
  341 1     1      0.00000     22.79987      9.62837      5.25279
  342 1     1      0.00000     22.79987     16.71463     21.09021
  343 1     1      0.00000      3.54313     16.71463      5.25279
  344 1     1      0.00000      3.54313      9.62837     21.09021
  345 1     1      0.00000      5.25279     22.79987      9.62837
  346 1     1      0.00000     21.09021     22.79987     16.71463
  347 1     1      0.00000      5.25279      3.54313     16.71463
  348 1     1      0.00000     21.09021      3.54313      9.62837
  349 1     1      0.00000      5.25279      9.62837      3.54313
  350 1     1      0.00000     21.09021     16.71463      3.54313
  351 1     1      0.00000      5.25279     16.71463     22.79987
  352 1     1      0.00000     21.09021      9.62837     22.79987
  353 1     1      0.00000      9.62837     22.79987     21.09021
  354 1     1      0.00000     16.71463     22.79987      5.25279
  355 1     1      0.00000     16.71463      3.54313     21.09021
  356 1     1      0.00000      9.62837      3.54313      5.25279
  357 1     1      0.00000     22.79987      5.25279     16.71463
  358 1     1      0.00000     22.79987     21.09021      9.62837
  359 1     1      0.00000      3.54313      5.25279      9.62837
  360 1     1      0.00000      3.54313     21.09021     16.71463
  361 1     1      0.00000     16.71463     21.09021      3.54313
  362 1     1      0.00000      9.62837      5.25279      3.54313
  363 1     1      0.00000      9.62837     21.09021     22.79987
  364 1     1      0.00000     16.71463      5.25279     22.79987
  365 1     1      0.00000      3.54313     16.71463     21.09021
  366 1     1      0.00000      3.54313      9.62837      5.25279
  367 1     1      0.00000     22.79987      9.62837     21.09021
  368 1     1      0.00000     22.79987     16.71463      5.25279
  369 1     1      0.00000     21.09021      3.54313     16.71463
  370 1     1      0.00000      5.25279      3.54313      9.62837
  371 1     1      0.00000     21.09021     22.79987      9.62837
  372 1     1      0.00000      5.25279     22.79987     16.71463
  373 1     1      0.00000     21.09021     16.71463     22.79987
  374 1     1      0.00000      5.25279      9.62837     22.79987
  375 1     1      0.00000     21.09021      9.62837      3.54313
  376 1     1      0.00000      5.25279     16.71463      3.54313
  377 1     1      0.00000     16.71463      3.54313      5.25279
  378 1     1      0.00000      9.62837      3.54313     21.09021
  379 1     1      0.00000      9.62837     22.79987      5.25279
  380 1     1      0.00000     16.71463     22.79987     21.09021
  381 1     1      0.00000      3.54313     21.09021      9.62837
  382 1     1      0.00000      3.54313      5.25279     16.71463
  383 1     1      0.00000     22.79987     21.09021     16.71463
  384 1     1      0.00000     22.79987      5.25279      9.62837
  385 1     1      0.00000      9.62837     18.42429      9.62837
  386 1     1      0.00000     16.71463      7.91871      9.62837
  387 1     1      0.00000     16.71463     18.42429     16.71463
  388 1     1      0.00000      9.62837      7.91871     16.71463
  389 1     1      0.00000     22.79987     22.79987     18.42429
  390 1     1      0.00000     22.79987      3.54313      7.91871
  391 1     1      0.00000      3.54313      3.54313     18.42429
  392 1     1      0.00000      3.54313     22.79987      7.91871
  393 1     1      0.00000      9.62837      9.62837      7.91871
  394 1     1      0.00000     16.71463      9.62837     18.42429
  395 1     1      0.00000     16.71463     16.71463      7.91871
  396 1     1      0.00000      9.62837     16.71463     18.42429
  397 1     1      0.00000     22.79987     18.42429      3.54313
  398 1     1      0.00000     22.79987      7.91871     22.79987
  399 1     1      0.00000      3.54313     18.42429     22.79987
  400 1     1      0.00000      3.54313      7.91871      3.54313
  401 1     1      0.00000     16.71463      7.91871     16.71463
  402 1     1      0.00000      9.62837     18.42429     16.71463
  403 1     1      0.00000      9.62837      7.91871      9.62837
  404 1     1      0.00000     16.71463     18.42429      9.62837
  405 1     1      0.00000      3.54313      3.54313      7.91871
  406 1     1      0.00000      3.54313     22.79987     18.42429
  407 1     1      0.00000     22.79987     22.79987      7.91871
  408 1     1      0.00000     22.79987      3.54313     18.42429
  409 1     1      0.00000     16.71463     16.71463     18.42429
  410 1     1      0.00000      9.62837     16.71463      7.91871
  411 1     1      0.00000      9.62837      9.62837     18.42429
  412 1     1      0.00000     16.71463      9.62837      7.91871
  413 1     1      0.00000      3.54313      7.91871     22.79987
  414 1     1      0.00000      3.54313     18.42429      3.54313
  415 1     1      0.00000     22.79987      7.91871      3.54313
  416 1     1      0.00000     22.79987     18.42429     22.79987
  417 1     1      0.00000     18.42429     22.79987     22.79987
  418 1     1      0.00000      7.91871     22.79987      3.54313
  419 1     1      0.00000     18.42429      3.54313      3.54313
  420 1     1      0.00000      7.91871      3.54313     22.79987
  421 1     1      0.00000     18.42429      9.62837     16.71463
  422 1     1      0.00000      7.91871     16.71463     16.71463
  423 1     1      0.00000     18.42429     16.71463      9.62837
  424 1     1      0.00000      7.91871      9.62837      9.62837