Created by Ryther's code on 2024-12-08 13:46:53.896543

    292 atoms
    320 bonds
    520 angles
    800 dihedrals
    160 impropers

    6 atom types
    14 bond types
    30 angle types
    12 dihedral types
    2 improper types

0.00000000 28.127 xlo xhi
0.00000000 28.127 ylo yhi
0.00000000 8.879 zlo zhi
0.0 0.0 0.0 xy xz yz 

Masses 

    1    12.0107
    2    12.0107
    3    12.0107
    4    1.00794
    5    14.0067
    6    14.0067

Pair Coeffs

    1       0.10500      3.43085 # C_2 C_2
    2       0.10500      3.43085 # C_3 C_3
    3       0.10500      3.43085 # C_R C_R
    4       0.04400      2.57113 # H_ H_
    5       0.06900      3.26069 # N_2 N_2
    6       0.06900      3.26069 # N_R N_R

Bond Coeffs

    1     357.44038      1.08142 # C_R H_ bond order=1.0
    2     354.48390      1.08442 # C_2 H_ bond order=1.0
    3     369.94394      1.48600 # C_3 C_R bond order=1.0
    4     462.65505      1.37926 # C_R C_R bond order=1.5
    5     391.66951      1.45800 # C_R C_R bond order=1.0
    6     523.75938      1.32339 # C_R C_R bond order=2.0
    7     389.26171      1.46100 # C_2 C_R bond order=1.0
    8     751.73006      1.29035 # C_R N_R bond order=2.0
    9     747.01382      1.29306 # C_2 N_R bond order=2.0
    10    769.38234      1.28041 # C_2 N_2 bond order=2.0
    11    774.28844      1.27770 # C_R N_2 bond order=2.0
    12    663.66675      1.34507 # C_R N_R bond order=1.5
    13    578.29491      1.40825 # C_R N_2 bond order=1.0
    14    517.34607      1.32883 # C_2 C_2 bond order=2.0

Angle Coeffs

    1  fourier                226.54358      0.34375      0.37500      0.28125 # C_R C_3 C_R
    2  cosine/periodic         57.28902           -1            3 # C_R C_R H_
    3  cosine/periodic         51.62857           -1            3 # C_R C_R H_
    4  cosine/periodic        102.18328           -1            3 # C_R C_R C_R
    5  cosine/periodic         61.73740           -1            3 # C_R C_R H_
    6  cosine/periodic        118.27773           -1            3 # C_R C_R C_R
    7  cosine/periodic        111.29751           -1            3 # C_R C_R C_R
    8  cosine/periodic        107.88044           -1            3 # C_2 C_R C_R
    9  cosine/periodic        101.85214           -1            3 # C_2 C_R C_R
    10 cosine/periodic        108.24400           -1            3 # C_R C_R C_R
    11 cosine/periodic         85.88135           -1            3 # H_ C_R N_R
    12 cosine/periodic        163.13092           -1            3 # C_R C_R N_R
    13 cosine/periodic         51.27132           -1            3 # C_R C_2 H_
    14 cosine/periodic         85.27076           -1            3 # H_ C_2 N_R
    15 cosine/periodic        148.07609           -1            3 # C_R C_2 N_R
    16 cosine/periodic         86.74085           -1            3 # H_ C_2 N_2
    17 cosine/periodic        150.01499           -1            3 # C_R C_2 N_2
    18 cosine/periodic         87.36593           -1            3 # H_ C_R N_2
    19 cosine/periodic        165.39729           -1            3 # C_R C_R N_2
    20 cosine/periodic        153.68727           -1            3 # C_R C_R N_R
    21 cosine/periodic        140.36058           -1            3 # C_2 C_R N_R
    22 cosine/periodic        143.48201           -1            3 # C_R C_R N_2
    23 cosine/periodic         61.08098           -1            3 # C_2 C_2 H_
    24 cosine/periodic        107.27754           -1            3 # C_2 C_2 C_R
    25 cosine/periodic         91.27029           -1            3 # C_2 C_R C_3
    26 cosine/periodic         99.13715           -1            3 # C_3 C_R C_R
    27 cosine/periodic        127.56007           -1            3 # C_R N_R C_R
    28 cosine/periodic        127.17441           -1            3 # C_2 N_R C_R
    29 fourier                291.47740      0.36401      0.41847      0.28800 # C_2 N_2 C_R
    30 fourier                292.30819      0.36401      0.41847      0.28800 # C_R N_2 C_R

Dihedral Coeffs

    1       0.16667           -1            6 # X C_3 C_R X bond order=1.0
    2       3.36856           -1            2 # X C_R C_R X bond order=1.5
    3       1.25000           -1            2 # X C_R C_R X bond order=1.0
    4       4.87169           -1            2 # X C_R C_R X bond order=2.0
    5       1.25000           -1            2 # X C_2 C_R X bond order=1.0
    6       9.74339           -1            2 # X C_R N_R X bond order=2.0
    7       9.74339           -1            2 # X C_2 N_R X bond order=2.0
    8       9.74339           -1            2 # X C_2 N_2 X bond order=2.0
    9       9.74339           -1            2 # X C_R N_2 X bond order=2.0
    10      6.73711           -1            2 # X C_R N_R X bond order=1.5
    11      2.50000           -1            2 # X C_R N_2 X bond order=1.0
    12      4.87169           -1            2 # X C_2 C_2 X bond order=2.0

Improper Coeffs

    1       2.00000      1.00000     -1.00000      0.00000            1 # C_R X X X O_2 present=False
    2       2.00000      1.00000     -1.00000      0.00000            1 # C_2 X X X O_2 present=False

Atoms

    1 1     4      0.00000     12.14524     12.57558      0.40755
    2 1     4      0.00000      1.91826     15.55142      4.84705
    3 1     4      0.00000      8.51967     19.17699      2.62730
    4 1     4      0.00000      5.54383      8.95001      7.06680
    5 1     4      0.00000     15.98176     15.55142      8.47145
    6 1     4      0.00000     26.20874     12.57558      4.03195
    7 1     4      0.00000     19.60733      8.95001      6.25170
    8 1     4      0.00000     22.58317     19.17699      1.81220
    9 1     4      0.00000     26.20874     26.63908      4.84705
   10 1     4      0.00000     15.98176      1.48792      0.40755
   11 1     4      0.00000     22.58317      5.11349      7.06680
   12 1     4      0.00000     19.60733     23.01351      2.62730
   13 1     4      0.00000      1.91826      1.48792      4.03195
   14 1     4      0.00000     12.14524     26.63908      8.47145
   15 1     4      0.00000      5.54383     23.01351      1.81220
   16 1     4      0.00000      8.51967      5.11349      6.25170
   17 1     4      0.00000     12.83435     11.12985      7.71496
   18 1     4      0.00000      1.22915     16.99715      3.27546
   19 1     4      0.00000      9.96540     19.86610      1.05571
   20 1     4      0.00000      4.09810      8.26090      5.49521
   21 1     4      0.00000     15.29265     16.99715      1.16404
   22 1     4      0.00000     26.89785     11.12985      5.60354
   23 1     4      0.00000     18.16160      8.26090      7.82329
   24 1     4      0.00000     24.02890     19.86610      3.38379
   25 1     4      0.00000     26.89785     25.19335      3.27546
   26 1     4      0.00000     15.29265      2.93365      7.71496
   27 1     4      0.00000     24.02890      5.80260      5.49521
   28 1     4      0.00000     18.16160     22.32440      1.05571
   29 1     4      0.00000      1.22915      2.93365      5.60354
   30 1     4      0.00000     12.83435     25.19335      1.16404
   31 1     4      0.00000      4.09810     22.32440      3.38379
   32 1     4      0.00000      9.96540      5.80260      7.82329
   33 1     4      0.00000     15.67799     13.55440      7.28788
   34 1     4      0.00000     26.51251     14.57260      2.84838
   35 1     4      0.00000      7.54085     22.70974      0.62863
   36 1     4      0.00000      6.52265      5.41726      5.06813
   37 1     4      0.00000     12.44901     14.57260      1.59112
   38 1     4      0.00000      1.61449     13.55440      6.03062
   39 1     4      0.00000     20.58615      5.41726      8.25037
   40 1     4      0.00000     21.60435     22.70974      3.81087
   41 1     4      0.00000      1.61449     27.61790      2.84838
   42 1     4      0.00000     12.44901      0.50910      7.28788
   43 1     4      0.00000     21.60435      8.64624      5.06813
   44 1     4      0.00000     20.58615     19.48076      0.62863
   45 1     4      0.00000     26.51251      0.50910      6.03062
   46 1     4      0.00000     15.67799     27.61790      1.59112
   47 1     4      0.00000      6.52265     19.48076      3.81087
   48 1     4      0.00000      7.54085      8.64624      8.25037
   49 1     4      0.00000     16.45148     10.42387      5.32385
   50 1     4      0.00000     25.73902     17.70313      0.88435
   51 1     4      0.00000     10.67138     23.48323      7.54360
   52 1     4      0.00000      3.39212      4.64377      3.10410
   53 1     4      0.00000     11.67552     17.70313      3.55515
   54 1     4      0.00000      2.38798     10.42387      7.99465
   55 1     4      0.00000     17.45562      4.64377      1.33540
   56 1     4      0.00000     24.73488     23.48323      5.77490
   57 1     4      0.00000      2.38798     24.48737      0.88435
   58 1     4      0.00000     11.67552      3.63963      5.32385
   59 1     4      0.00000     24.73488      9.41973      3.10410
   60 1     4      0.00000     17.45562     18.70727      7.54360
   61 1     4      0.00000     25.73902      3.63963      7.99465
   62 1     4      0.00000     16.45148     24.48737      3.55515
   63 1     4      0.00000      3.39212     18.70727      5.77490
   64 1     4      0.00000     10.67138      9.41973      1.33540
   65 1     4      0.00000     16.32210      8.58436      3.94583
   66 1     4      0.00000     25.86840     19.54264      8.38533
   67 1     4      0.00000     12.51089     23.35385      6.16558
   68 1     4      0.00000      1.55261      4.77315      1.72608
   69 1     4      0.00000     11.80490     19.54264      4.93317
   70 1     4      0.00000      2.25860      8.58436      0.49367
   71 1     4      0.00000     15.61611      4.77315      2.71342
   72 1     4      0.00000     26.57439     23.35385      7.15292
   73 1     4      0.00000      2.25860     22.64786      8.38533
   74 1     4      0.00000     11.80490      5.47914      3.94583
   75 1     4      0.00000     26.57439      9.29035      1.72608
   76 1     4      0.00000     15.61611     18.83665      6.16558
   77 1     4      0.00000     25.86840      5.47914      0.49367
   78 1     4      0.00000     16.32210     22.64786      4.93317
   79 1     4      0.00000      1.55261     18.83665      7.15292
   80 1     4      0.00000     12.51089      9.29035      2.71342
   81 1     4      0.00000     12.15649      8.08370      4.79111
   82 1     4      0.00000      1.90701     20.04330      0.35161
   83 1     4      0.00000     13.01155     19.18824      7.01086
   84 1     4      0.00000      1.05195      8.93876      2.57136
   85 1     4      0.00000     15.97051     20.04330      4.08789
   86 1     4      0.00000     26.21999      8.08370      8.52739
   87 1     4      0.00000     15.11545      8.93876      1.86814
   88 1     4      0.00000     27.07505     19.18824      6.30764
   89 1     4      0.00000     26.21999     22.14720      0.35161
   90 1     4      0.00000     15.97051      5.97980      4.79111
   91 1     4      0.00000     27.07505      5.12474      2.57136
   92 1     4      0.00000     15.11545     23.00226      7.01086
   93 1     4      0.00000      1.90701      5.97980      8.52739
   94 1     4      0.00000     12.15649     22.14720      4.08789
   95 1     4      0.00000      1.05195     23.00226      6.30764
   96 1     4      0.00000     13.01155      5.12474      1.86814
   97 1     4      0.00000     12.30275      9.92039      6.17712
   98 1     4      0.00000      1.76075     18.20661      1.73762
   99 1     4      0.00000     11.17486     19.33450      8.39687
  100 1     4      0.00000      2.88864      8.79250      3.95737
  101 1     4      0.00000     15.82425     18.20661      2.70188
  102 1     4      0.00000     26.36625      9.92039      7.14138
  103 1     4      0.00000     16.95214      8.79250      0.48213
  104 1     4      0.00000     25.23836     19.33450      4.92163
  105 1     4      0.00000     26.36625     23.98389      1.73762
  106 1     4      0.00000     15.82425      4.14311      6.17712
  107 1     4      0.00000     25.23836      5.27100      3.95737
  108 1     4      0.00000     16.95214     22.85600      8.39687
  109 1     4      0.00000      1.76075      4.14311      7.14138
  110 1     4      0.00000     12.30275     23.98389      2.70188
  111 1     4      0.00000      2.88864     22.85600      4.92163
  112 1     4      0.00000     11.17486      5.27100      0.48213
  113 1     2      0.00000      0.00000      7.03175      1.10987
  114 1     2      0.00000     14.06350     21.09525      5.54938
  115 1     2      0.00000     14.06350      7.03175      3.32963
  116 1     2      0.00000      0.00000     21.09525      7.76912
  117 1     3      0.00000     12.98905     13.21688      0.22109
  118 1     3      0.00000      1.07445     14.91012      4.66059
  119 1     3      0.00000      7.87837     20.02080      2.44084
  120 1     3      0.00000      6.18513      8.10620      6.88034
  121 1     3      0.00000     15.13795     14.91012      8.65791
  122 1     3      0.00000     27.05255     13.21688      4.21841
  123 1     3      0.00000     20.24863      8.10620      6.43816
  124 1     3      0.00000     21.94187     20.02080      1.99866
  125 1     3      0.00000     27.05255     27.28038      4.66059
  126 1     3      0.00000     15.13795      0.84662      0.22109
  127 1     3      0.00000     21.94187      5.95730      6.88034
  128 1     3      0.00000     20.24863     22.16970      2.44084
  129 1     3      0.00000      1.07445      0.84662      4.21841
  130 1     3      0.00000     12.98905     27.28038      8.65791
  131 1     3      0.00000      6.18513     22.16970      1.99866
  132 1     3      0.00000      7.87837      5.95730      6.43816
  133 1     3      0.00000     13.88630     12.90185      8.19354
  134 1     3      0.00000      0.17720     15.22515      3.75404
  135 1     3      0.00000      8.19340     20.91805      1.53429
  136 1     3      0.00000      5.87010      7.20895      5.97379
  137 1     3      0.00000     14.24070     15.22515      0.68546
  138 1     3      0.00000     27.94980     12.90185      5.12496
  139 1     3      0.00000     19.93360      7.20895      7.34471
  140 1     3      0.00000     22.25690     20.91805      2.90521
  141 1     3      0.00000     27.94980     26.96535      3.75404
  142 1     3      0.00000     14.24070      1.16165      8.19354
  143 1     3      0.00000     22.25690      6.85455      5.97379
  144 1     3      0.00000     19.93360     21.27245      1.53429
  145 1     3      0.00000      0.17720      1.16165      5.12496
  146 1     3      0.00000     13.88630     26.96535      0.68546
  147 1     3      0.00000      5.87010     21.27245      2.90521
  148 1     3      0.00000      8.19340      6.85455      7.34471
  149 1     3      0.00000     13.68097     11.75709      7.51963
  150 1     3      0.00000      0.38253     16.36991      3.08013
  151 1     1      0.00000      9.33816     20.71272      0.86038
  152 1     1      0.00000      4.72534      7.41428      5.29988
  153 1     3      0.00000     14.44603     16.36991      1.35937
  154 1     3      0.00000     27.74447     11.75709      5.79887
  155 1     3      0.00000     18.78884      7.41428      8.01862
  156 1     3      0.00000     23.40166     20.71272      3.57912
  157 1     1      0.00000     27.74447     25.82059      3.08013
  158 1     3      0.00000     14.44603      2.30641      7.51963
  159 1     3      0.00000     23.40166      6.64922      5.29988
  160 1     3      0.00000     18.78884     21.47778      0.86038
  161 1     1      0.00000      0.38253      2.30641      5.79887
  162 1     3      0.00000     13.68097     25.82059      1.35937
  163 1     1      0.00000      4.72534     21.47778      3.57912
  164 1     1      0.00000      9.33816      6.64922      8.01862
  165 1     3      0.00000     14.96356     13.76254      7.97956
  166 1     3      0.00000     27.22694     14.36446      3.54006
  167 1     3      0.00000      7.33271     21.99531      1.32031
  168 1     3      0.00000      6.73079      6.13169      5.75981
  169 1     3      0.00000     13.16344     14.36446      0.89944
  170 1     3      0.00000      0.90006     13.76254      5.33894
  171 1     3      0.00000     20.79429      6.13169      7.55869
  172 1     3      0.00000     21.39621     21.99531      3.11919
  173 1     3      0.00000      0.90006     27.82604      3.54006
  174 1     3      0.00000     13.16344      0.30096      7.97956
  175 1     3      0.00000     21.39621      7.93181      5.75981
  176 1     3      0.00000     20.79429     20.19519      1.32031
  177 1     3      0.00000     27.22694      0.30096      5.33894
  178 1     3      0.00000     14.96356     27.82604      0.89944
  179 1     3      0.00000      6.73079     20.19519      3.11919
  180 1     3      0.00000      7.33271      7.93181      7.55869
  181 1     3      0.00000     14.39821     10.31417      5.85304
  182 1     3      0.00000     27.79229     17.81283      1.41354
  183 1     3      0.00000     10.78108     21.42996      8.07279
  184 1     3      0.00000      3.28242      6.69704      3.63329
  185 1     3      0.00000     13.72879     17.81283      3.02596
  186 1     3      0.00000      0.33471     10.31417      7.46546
  187 1     3      0.00000     17.34592      6.69704      0.80621
  188 1     3      0.00000     24.84458     21.42996      5.24571
  189 1     3      0.00000      0.33471     24.37767      1.41354
  190 1     3      0.00000     13.72879      3.74933      5.85304
  191 1     3      0.00000     24.84458      7.36646      3.63329
  192 1     3      0.00000     17.34592     20.76054      8.07279
  193 1     3      0.00000     27.79229      3.74933      7.46546
  194 1     3      0.00000     14.39821     24.37767      3.02596
  195 1     3      0.00000      3.28242     20.76054      5.24571
  196 1     3      0.00000     10.78108      7.36646      0.80621
  197 1     1      0.00000     15.50642      9.92602      5.19599
  198 1     1      0.00000     26.68408     18.20098      0.75649
  199 1     3      0.00000     11.16923     22.53817      7.41574
  200 1     3      0.00000      2.89427      5.58883      2.97624
  201 1     1      0.00000     12.62058     18.20098      3.68301
  202 1     3      0.00000      1.44292      9.92602      8.12251
  203 1     3      0.00000     16.95777      5.58883      1.46326
  204 1     3      0.00000     25.23273     22.53817      5.90276
  205 1     1      0.00000      1.44292     23.98952      0.75649
  206 1     1      0.00000     12.62058      4.13748      5.19599
  207 1     3      0.00000     25.23273      8.47467      2.97624
  208 1     1      0.00000     16.95777     19.65233      7.41574
  209 1     1      0.00000     26.68408      4.13748      8.12251
  210 1     1      0.00000     15.50642     23.98952      3.68301
  211 1     1      0.00000      2.89427     19.65233      5.90276
  212 1     3      0.00000     11.16923      8.47467      1.46326
  213 1     1      0.00000     15.41922      8.88251      4.38534
  214 1     1      0.00000     26.77128     19.24449      8.82484
  215 1     3      0.00000     12.21274     22.45097      6.60509
  216 1     3      0.00000      1.85076      5.67603      2.16559
  217 1     1      0.00000     12.70778     19.24449      4.49366
  218 1     3      0.00000      1.35572      8.88251      0.05416
  219 1     3      0.00000     15.91426      5.67603      2.27391
  220 1     3      0.00000     26.27624     22.45097      6.71341
  221 1     1      0.00000      1.35572     22.94601      8.82484
  222 1     1      0.00000     12.70778      5.18099      4.38534
  223 1     3      0.00000     26.27624      8.38747      2.16559
  224 1     1      0.00000     15.91426     19.73953      6.60509
  225 1     1      0.00000     26.77128      5.18099      0.05416
  226 1     1      0.00000     15.41922     22.94601      4.49366
  227 1     1      0.00000      1.85076     19.73953      6.71341
  228 1     3      0.00000     12.21274      8.38747      2.27391
  229 1     3      0.00000     14.19570      8.23277      4.17668
  230 1     3      0.00000     27.99480     19.89423      8.61618
  231 1     3      0.00000     12.86248     21.22745      6.39643
  232 1     3      0.00000      1.20102      6.89955      1.95693
  233 1     3      0.00000     13.93130     19.89423      4.70232
  234 1     3      0.00000      0.13220      8.23277      0.26282
  235 1     3      0.00000     15.26452      6.89955      2.48257
  236 1     3      0.00000     26.92598     21.22745      6.92207
  237 1     3      0.00000      0.13220     22.29627      8.61618
  238 1     3      0.00000     13.93130      5.83073      4.17668
  239 1     3      0.00000     26.92598      7.16395      1.95693
  240 1     3      0.00000     15.26452     20.96305      6.39643
  241 1     3      0.00000     27.99480      5.83073      0.26282
  242 1     3      0.00000     14.19570     22.29627      4.70232
  243 1     3      0.00000      1.20102     20.96305      6.92207
  244 1     3      0.00000     12.86248      7.16395      2.48257
  245 1     3      0.00000     13.09874      8.59842      4.88167
  246 1     3      0.00000      0.96476     19.52858      0.44217
  247 1     1      0.00000     12.49683     20.13049      7.10142
  248 1     3      0.00000      1.56667      7.99651      2.66192
  249 1     3      0.00000     15.02826     19.52858      3.99733
  250 1     1      0.00000     27.16224      8.59842      8.43683
  251 1     3      0.00000     15.63017      7.99651      1.77758
  252 1     3      0.00000     26.56033     20.13049      6.21708
  253 1     3      0.00000     27.16224     22.66192      0.44217
  254 1     3      0.00000     15.02826      5.46508      4.88167
  255 1     1      0.00000     26.56033      6.06699      2.66192
  256 1     3      0.00000     15.63017     22.06001      7.10142
  257 1     3      0.00000      0.96476      5.46508      8.43683
  258 1     3      0.00000     13.09874     22.66192      3.99733
  259 1     3      0.00000      1.56667     22.06001      6.21708
  260 1     1      0.00000     12.49683      6.06699      1.77758
  261 1     3      0.00000     13.18875      9.63631      5.69321
  262 1     3      0.00000      0.87475     18.49069      1.25371
  263 1     1      0.00000     11.45894     20.22050      7.91296
  264 1     3      0.00000      2.60456      7.90650      3.47346
  265 1     3      0.00000     14.93825     18.49069      3.18579
  266 1     1      0.00000     27.25225      9.63631      7.62529
  267 1     3      0.00000     16.66806      7.90650      0.96604
  268 1     3      0.00000     25.52244     20.22050      5.40554
  269 1     3      0.00000     27.25225     23.69981      1.25371
  270 1     3      0.00000     14.93825      4.42719      5.69321
  271 1     1      0.00000     25.52244      6.15700      3.47346
  272 1     3      0.00000     16.66806     21.97000      7.91296
  273 1     3      0.00000      0.87475      4.42719      7.62529
  274 1     3      0.00000     13.18875     23.69981      3.18579
  275 1     3      0.00000      2.60456     21.97000      5.40554
  276 1     1      0.00000     11.45894      6.15700      0.96604
  277 1     6      0.00000     14.53322     11.41956      6.64504
  278 1     6      0.00000     27.65728     16.70744      2.20554
  279 1     6      0.00000      9.67569     21.56497      8.86479
  280 1     5      0.00000      4.38781      6.56203      4.42529
  281 1     6      0.00000     13.59378     16.70744      2.23396
  282 1     6      0.00000      0.46972     11.41956      6.67346
  283 1     5      0.00000     18.45131      6.56203      0.01421
  284 1     5      0.00000     23.73919     21.56497      4.45371
  285 1     6      0.00000      0.46972     25.48306      2.20554
  286 1     6      0.00000     13.59378      2.64394      6.64504
  287 1     6      0.00000     23.73919      7.50147      4.42529
  288 1     6      0.00000     18.45131     20.62553      8.86479
  289 1     6      0.00000     27.65728      2.64394      6.67346
  290 1     6      0.00000     14.53322     25.48306      2.23396
  291 1     6      0.00000      4.38781     20.62553      4.45371
  292 1     6      0.00000      9.67569      7.50147      0.01421

Bonds

    1 1     1      117   
    2 1     2      118   
    3 1     3      119   
    4 1     4      120   
    5 1     5      121   
    6 1     6      122   
    7 1     7      123   
    8 1     8      124   
    9 1     9      125   
   10 1     10     126   
   11 1     11     127   
   12 1     12     128   
   13 1     13     129   
   14 1     14     130   
   15 1     15     131   
   16 1     16     132   
   17 1     17     149   
   18 1     18     150   
   19 1     21     153   
   20 1     22     154   
   21 1     23     155   
   22 1     24     156   
   23 1     26     158   
   24 1     27     159   
   25 1     28     160   
   26 1     30     162   
   27 1     33     165   
   28 1     34     166   
   29 1     35     167   
   30 1     36     168   
   31 1     37     169   
   32 1     38     170   
   33 1     39     171   
   34 1     40     172   
   35 1     41     173   
   36 1     42     174   
   37 1     43     175   
   38 1     44     176   
   39 1     45     177   
   40 1     46     178   
   41 1     47     179   
   42 1     48     180   
   43 1     51     199   
   44 1     52     200   
   45 1     54     202   
   46 1     55     203   
   47 1     56     204   
   48 1     59     207   
   49 1     64     212   
   50 1     67     215   
   51 1     68     216   
   52 1     70     218   
   53 1     71     219   
   54 1     72     220   
   55 1     75     223   
   56 1     80     228   
   57 1     81     245   
   58 1     82     246   
   59 1     84     248   
   60 1     85     249   
   61 1     87     251   
   62 1     88     252   
   63 1     89     253   
   64 1     90     254   
   65 1     92     256   
   66 1     93     257   
   67 1     94     258   
   68 1     95     259   
   69 1     97     261   
   70 1     98     262   
   71 1     100    264   
   72 1     101    265   
   73 1     103    267   
   74 1     104    268   
   75 1     105    269   
   76 1     106    270   
   77 1     108    272   
   78 1     109    273   
   79 1     110    274   
   80 1     111    275   
   81 2     19     151   
   82 2     20     152   
   83 2     25     157   
   84 2     29     161   
   85 2     31     163   
   86 2     32     164   
   87 2     49     197   
   88 2     50     198   
   89 2     53     201   
   90 2     57     205   
   91 2     58     206   
   92 2     60     208   
   93 2     61     209   
   94 2     62     210   
   95 2     63     211   
   96 2     65     213   
   97 2     66     214   
   98 2     69     217   
   99 2     73     221   
  100 2     74     222   
  101 2     76     224   
  102 2     77     225   
  103 2     78     226   
  104 2     79     227   
  105 2     83     247   
  106 2     86     250   
  107 2     91     255   
  108 2     96     260   
  109 2     99     263   
  110 2     102    266   
  111 2     107    271   
  112 2     112    276   
  113 3     113    234   
  114 3     113    232   
  115 3     113    239   
  116 3     113    241   
  117 3     114    231   
  118 3     114    233   
  119 3     114    240   
  120 3     114    242   
  121 3     115    244   
  122 3     115    235   
  123 3     115    229   
  124 3     115    238   
  125 3     116    237   
  126 3     116    243   
  127 3     116    230   
  128 3     116    236   
  129 4     117    169   
  130 4     118    170   
  131 4     119    179   
  132 4     120    180   
  133 4     121    165   
  134 4     122    166   
  135 4     123    175   
  136 4     124    176   
  137 4     125    177   
  138 4     126    178   
  139 4     127    171   
  140 4     128    172   
  141 4     129    173   
  142 4     130    174   
  143 4     131    167   
  144 4     132    168   
  145 4     133    149   
  146 4     133    165   
  147 4     134    150   
  148 4     134    166   
  149 4     135    167   
  150 4     136    168   
  151 4     137    153   
  152 4     138    154   
  153 4     139    155   
  154 4     139    171   
  155 4     140    156   
  156 4     140    172   
  157 4     141    173   
  158 4     142    158   
  159 4     143    159   
  160 4     144    160   
  161 4     145    177   
  162 4     146    162   
  163 4     146    178   
  164 4     147    179   
  165 4     148    180   
  166 4     181    261   
  167 4     182    262   
  168 4     183    199   
  169 4     184    264   
  170 4     184    200   
  171 4     185    265   
  172 4     186    202   
  173 4     187    203   
  174 4     187    267   
  175 4     188    204   
  176 4     188    268   
  177 4     189    269   
  178 4     190    270   
  179 4     191    207   
  180 4     192    272   
  181 4     193    273   
  182 4     194    274   
  183 4     195    275   
  184 4     196    212   
  185 4     215    231   
  186 4     216    232   
  187 4     218    234   
  188 4     219    235   
  189 4     220    236   
  190 4     223    239   
  191 4     228    244   
  192 4     229    245   
  193 4     230    246   
  194 4     232    248   
  195 4     233    249   
  196 4     235    251   
  197 4     236    252   
  198 4     237    253   
  199 4     238    254   
  200 4     240    256   
  201 4     241    257   
  202 4     242    258   
  203 4     243    259   
  204 5     117    133   
  205 5     118    134   
  206 5     123    139   
  207 5     124    140   
  208 5     130    146   
  209 5     137    169   
  210 5     138    170   
  211 5     142    174   
  212 5     143    175   
  213 5     144    176   
  214 6     119    135   