Created by Ryther's code on 2024-12-06 14:13:29.670727

    162 atoms
    234 bonds
    522 angles
    468 dihedrals
    72 impropers

    5 atom types
    7 bond types
    12 angle types
    4 dihedral types
    2 improper types

0.00000000 25.7856 xlo xhi
0.00000000 22.33098465 ylo yhi
0.00000000 6.7701 zlo zhi
-12.8928 0.0 0.0 xy xz yz 

Masses 

    1    12.0107
    2    1.00794
    3    58.6934
    4    15.9994
    5    15.9994

Pair Coeffs

    1       0.10500      3.43085 # C_R C_R
    2       0.04400      2.57113 # H_ H_
    3       0.01500      2.52481 # Ni4+2 Ni4+2
    4       0.06000      3.11815 # O_2_M O_2_M
    5       0.06000      3.11815 # O_3_f O_3_f

Bond Coeffs

    1     264.20791      1.91512 # Ni4+2 O_3_f bond order=0.5
    2     264.23089      1.91512 # Ni4+2 O_2_M bond order=0.5
    3     357.44038      1.08142 # C_R H_ bond order=1.0
    4     714.49531      1.26901 # C_R O_3_f bond order=1.5
    5     714.55744      1.26901 # C_R O_2_M bond order=1.5
    6     391.66951      1.45800 # C_R C_R bond order=1.0
    7     462.65505      1.37926 # C_R C_R bond order=1.5

Angle Coeffs

    1  cosine/periodic        132.61595            1            4 # O_2_M Ni4+2 O_3_f
    2  cosine/periodic        132.60442            1            4 # O_3_f Ni4+2 O_3_f
    3  cosine/periodic        206.76045           -1            3 # O_2_M C_R O_3_f
    4  cosine/periodic        137.70227           -1            3 # C_R C_R O_3_f
    5  cosine/periodic        137.71425           -1            3 # C_R C_R O_2_M
    6  cosine/periodic        102.18328           -1            3 # C_R C_R C_R
    7  cosine/periodic        111.29751           -1            3 # C_R C_R C_R
    8  cosine/periodic        150.95560           -1            3 # C_R C_R O_3_f
    9  cosine/periodic         57.28902           -1            3 # C_R C_R H_
    10 cosine/periodic         87.18664           -1            3 # C_R O_2_M Ni4+2
    11 fourier                170.96049      0.34375      0.37500      0.28125 # Ni4+2 O_3_f Ni4+2
    12 fourier                216.77848      0.34375      0.37500      0.28125 # C_R O_3_f Ni4+2

Dihedral Coeffs

    1       0.00000           -1            2 # X C_R O_3_f X bond order=1.5
    2       6.73711           -1            2 # X C_R O_2_M X bond order=1.5
    3       1.25000           -1            2 # X C_R C_R X bond order=1.0
    4       3.36856           -1            2 # X C_R C_R X bond order=1.5

Improper Coeffs

    1      16.66667      1.00000     -1.00000      0.00000            1 # C_R X X X O_2 present=True
    2       2.00000      1.00000     -1.00000      0.00000            1 # C_R X X X O_2 present=False

Atoms

    1 1     3      0.00000     -8.73088     15.93383      1.27366
    2 1     3      0.00000      3.45914      6.80291      1.27366
    3 1     3      0.00000      5.27174     21.92523      1.27366
    4 1     3      0.00000     21.62368      6.39716      5.49644
    5 1     3      0.00000      9.43366     15.52807      5.49644
    6 1     3      0.00000      7.62106      0.40575      5.49644
    7 1     3      0.00000     17.05472      1.04650      3.53036
    8 1     3      0.00000     16.35194     14.24657      3.53036
    9 1     3      0.00000      5.27174      7.03791      3.53036
   10 1     3      0.00000      8.73088     13.84082      0.98304
   11 1     3      0.00000      9.43366      0.64075      0.98304
   12 1     3      0.00000     20.51386      7.84942      0.98304
   13 1     3      0.00000      4.16192      8.49017      5.78706
   14 1     3      0.00000      3.45914     21.69023      5.78706
   15 1     3      0.00000     -7.62106     14.48157      5.78706
   16 1     3      0.00000     -4.16192     21.28448      3.23974
   17 1     3      0.00000     -3.45914      8.08441      3.23974
   18 1     3      0.00000      7.62106     15.29308      3.23974
   19 1     2      0.00000     -5.96924     17.96148      1.30886
   20 1     2      0.00000      0.32232      8.18073      1.30886
   21 1     2      0.00000      5.64692     18.51976      1.30886
   22 1     2      0.00000     18.86204      4.36950      5.46124
   23 1     2      0.00000     12.57048     14.15025      5.46124
   24 1     2      0.00000      7.24588      3.81123      5.46124
   25 1     2      0.00000     19.81636      3.07416      3.56556
   26 1     2      0.00000     13.21512     15.62439      3.56556
   27 1     2      0.00000      5.64692      3.63243      3.56556
   28 1     2      0.00000      5.96924     11.81317      0.94784
   29 1     2      0.00000     -0.32232     21.59391      0.94784
   30 1     2      0.00000     -5.64692     11.25489      0.94784
   31 1     2      0.00000      6.92356     10.51782      5.82226
   32 1     2      0.00000     13.21512      0.73707      5.82226
   33 1     2      0.00000     18.53972     11.07609      5.82226
   34 1     2      0.00000     -6.92356     19.25683      3.20454
   35 1     2      0.00000     -0.32232      6.70659      3.20454
   36 1     2      0.00000      7.24588     18.69855      3.20454
   37 1     1      0.00000     -5.08737     20.42682      0.57776
   38 1     1      0.00000     -2.25366      7.71178      0.57776
   39 1     1      0.00000      7.34103     16.52337      0.57776
   40 1     1      0.00000     17.98017      1.90416      6.19234
   41 1     1      0.00000     15.14646     14.61920      6.19234
   42 1     1      0.00000      5.55177      5.80762      6.19234
   43 1     1      0.00000     20.69823      5.53950      2.83446
   44 1     1      0.00000     10.63914     15.15544      2.83446
   45 1     1      0.00000      7.34103      1.63604      2.83446
   46 1     1      0.00000      5.08737      9.34782      1.67894
   47 1     1      0.00000      2.25366     22.06286      1.67894
   48 1     1      0.00000     -7.34103     13.25128      1.67894
   49 1     1      0.00000      7.80543     12.98316      5.09116
   50 1     1      0.00000     10.63914      0.26812      5.09116
   51 1     1      0.00000     20.23383      9.07970      5.09116
   52 1     1      0.00000     -7.80543     16.79149      3.93564
   53 1     1      0.00000      2.25366      7.17554      3.93564
   54 1     1      0.00000      5.55177     20.69494      3.93564
   55 1     1      0.00000     -5.80034     19.54028      6.50153
   56 1     1      0.00000     -1.12941      7.53760      6.50153
   57 1     1      0.00000      6.92975     17.58409      6.50153
   58 1     1      0.00000     18.69314      2.79070      0.26857
   59 1     1      0.00000     14.02221     14.79338      0.26857
   60 1     1      0.00000      5.96305      4.74690      0.26857
   61 1     1      0.00000     19.98526      4.65296      1.98813
   62 1     1      0.00000     11.76339     14.98126      1.98813
   63 1     1      0.00000      6.92975      2.69676      1.98813
   64 1     1      0.00000      5.80034     10.23436      2.52527
   65 1     1      0.00000      1.12941     22.23705      2.52527
   66 1     1      0.00000     -6.92975     12.19056      2.52527
   67 1     1      0.00000      7.09246     12.09662      4.24483
   68 1     1      0.00000     11.76339      0.09394      4.24483
   69 1     1      0.00000     19.82255     10.14043      4.24483
   70 1     1      0.00000     -7.09246     17.67803      4.78197
   71 1     1      0.00000      1.12941      7.34972      4.78197
   72 1     1      0.00000      5.96305     19.63422      4.78197
   73 1     1      0.00000     -6.82016     17.31835      6.16303
   74 1     1      0.00000      1.30475      7.76538      6.16303
   75 1     1      0.00000      5.51541     19.57824      6.16303
   76 1     1      0.00000     19.71296      5.01264      0.60707
   77 1     1      0.00000     11.58805     14.56561      0.60707
   78 1     1      0.00000      7.37739      2.75274      0.60707
   79 1     1      0.00000     18.96544      2.43103      1.64963
   80 1     1      0.00000     14.19755     15.20904      1.64963
   81 1     1      0.00000      5.51541      4.69092      1.64963
   82 1     1      0.00000      6.82016     12.45630      2.86377
   83 1     1      0.00000     -1.30475     22.00927      2.86377
   84 1     1      0.00000     -5.51541     10.19640      2.86377
   85 1     1      0.00000      6.07264      9.87469      3.90633
   86 1     1      0.00000     14.19755      0.32172      3.90633
   87 1     1      0.00000     18.40821     12.13458      3.90633
   88 1     1      0.00000     -6.07264     19.89996      5.12047
   89 1     1      0.00000     -1.30475      7.12195      5.12047
   90 1     1      0.00000      7.37739     17.64006      5.12047
   91 1     1      0.00000     -6.19357     18.23839      0.23926
   92 1     1      0.00000      0.19468      7.84800      0.23926
   93 1     1      0.00000      5.99889     18.57558      0.23926
   94 1     1      0.00000     19.08637      4.09260      6.53084
   95 1     1      0.00000     12.69812     14.48298      6.53084
   96 1     1      0.00000      6.89391      3.75540      6.53084
   97 1     1      0.00000     19.59203      3.35106      2.49596
   98 1     1      0.00000     13.08748     15.29166      2.49596
   99 1     1      0.00000      5.99889      3.68826      2.49596
  100 1     1      0.00000      6.19357     11.53626      2.01744
  101 1     1      0.00000     -0.19468     21.92664      2.01744
  102 1     1      0.00000     -5.99889     11.19906      2.01744
  103 1     1      0.00000      6.69923     10.79472      4.75266
  104 1     1      0.00000     13.08748      0.40434      4.75266
  105 1     1      0.00000     18.89169     11.13192      4.75266
  106 1     1      0.00000     -6.69923     18.97992      4.27414
  107 1     1      0.00000     -0.19468      7.03932      4.27414
  108 1     1      0.00000      6.89391     18.64272      4.27414
  109 1     4      0.00000     -4.81404     20.07846      1.79638
  110 1     4      0.00000     -2.08863      8.12267      1.79638
  111 1     4      0.00000      6.90268     16.46084      1.79638
  112 1     4      0.00000     17.70684      2.25253      4.97372
  113 1     4      0.00000     14.98143     14.20831      4.97372
  114 1     4      0.00000      5.99012      5.87015      4.97372
  115 1     4      0.00000     20.97156      5.19114      4.05308
  116 1     4      0.00000     10.80417     15.56633      4.05308
  117 1     4      0.00000      6.90268      1.57352      4.05308
  118 1     4      0.00000      4.81404      9.69619      0.46032
  119 1     4      0.00000      2.08863     21.65197      0.46032
  120 1     4      0.00000     -6.90268     13.31381      0.46032
  121 1     4      0.00000      8.07876     12.63480      6.30978
  122 1     4      0.00000     10.80417      0.67901      6.30978
  123 1     4      0.00000     19.79548      9.01718      6.30978
  124 1     4      0.00000     -8.07876     17.13985      2.71702
  125 1     4      0.00000      2.08863      6.76465      2.71702
  126 1     4      0.00000      5.99012     20.75747      2.71702
  127 1     5      0.00000     -4.68898     21.53221      0.13764
  128 1     5      0.00000     -3.41015      7.50410      0.13764
  129 1     5      0.00000      8.09913     15.62566      0.13764
  130 1     5      0.00000     17.58178      0.79878      6.63246
  131 1     5      0.00000     16.30295     14.82688      6.63246
  132 1     5      0.00000      4.79367      6.70532      6.63246
  133 1     5      0.00000     21.09662      6.64488      2.39434
  134 1     5      0.00000      9.48265     14.94777      2.39434
  135 1     5      0.00000      8.09913      0.73834      2.39434
  136 1     5      0.00000      4.68898      8.24244      2.11906
  137 1     5      0.00000      3.41015     22.27054      2.11906
  138 1     5      0.00000     -8.09913     14.14899      2.11906
  139 1     5      0.00000      8.20382     14.08854      4.65104
  140 1     5      0.00000      9.48265      0.06044      4.65104
  141 1     5      0.00000     20.99193      8.18200      4.65104
  142 1     5      0.00000     -8.20382     15.68610      4.37576
  143 1     5      0.00000      3.41015      7.38322      4.37576
  144 1     5      0.00000      4.79367     21.59265      4.37576
  145 1     5      0.00000     -7.16053     16.10354      6.63016
  146 1     5      0.00000      2.52699      8.07801      6.63016
  147 1     5      0.00000      4.63354     20.48042      6.63016
  148 1     5      0.00000     20.05333      6.22744      0.13994
  149 1     5      0.00000     10.36581     14.25297      0.13994
  150 1     5      0.00000      8.25926      1.85057      0.13994
  151 1     5      0.00000     18.62507      1.21622      2.11676
  152 1     5      0.00000     15.41979     15.52167      2.11676
  153 1     5      0.00000      4.63354      5.59309      2.11676
  154 1     5      0.00000      7.16053     13.67110      2.39664
  155 1     5      0.00000     -2.52699     21.69664      2.39664
  156 1     5      0.00000     -4.63354      9.29423      2.39664
  157 1     5      0.00000      5.73227      8.65988      4.37346
  158 1     5      0.00000     15.41979      0.63435      4.37346
  159 1     5      0.00000     17.52634     13.03675      4.37346
  160 1     5      0.00000     -5.73227     21.11476      4.65334
  161 1     5      0.00000     -2.52699      6.80931      4.65334
  162 1     5      0.00000      8.25926     16.73789      4.65334

Bonds

    1 1     1      138   
    2 1     1      131   
    3 1     1      145   
    4 1     1      152   
    5 1     2      153   
    6 1     2      136   
    7 1     2      132   
    8 1     2      146   
    9 1     3      137   
   10 1     3      151   
   11 1     3      130   
   12 1     3      147   
   13 1     4      141   
   14 1     4      148   
   15 1     4      128   
   16 1     4      161   
   17 1     5      162   
   18 1     5      129   
   19 1     5      149   
   20 1     5      139   
   21 1     6      150   
   22 1     6      140   
   23 1     6      127   
   24 1     6      160   
   25 1     7      151   
   26 1     7      158   
   27 1     7      137   
   28 1     7      144   
   29 1     8      142   
   30 1     8      159   
   31 1     8      138   
   32 1     8      152   
   33 1     9      143   
   34 1     9      153   
   35 1     9      157   
   36 1     9      136   
   37 1     10     154   
   38 1     10     134   
   39 1     10     129   
   40 1     10     149   
   41 1     11     150   
   42 1     11     135   
   43 1     11     127   
   44 1     11     155   
   45 1     12     148   
   46 1     12     128   
   47 1     12     156   
   48 1     12     133   
   49 1     13     146   
   50 1     13     157   
   51 1     13     132   
   52 1     13     143   
   53 1     14     158   
   54 1     14     130   
   55 1     14     147   
   56 1     14     144   
   57 1     15     145   
   58 1     15     142   
   59 1     15     131   
   60 1     15     159   
   61 1     16     160   
   62 1     16     155   
   63 1     16     140   
   64 1     16     135   
   65 1     17     161   
   66 1     17     156   
   67 1     17     133   
   68 1     17     141   
   69 1     18     162   
   70 1     18     154   
   71 1     18     134   
   72 1     18     139   
   73 2     1      124   
   74 2     2      125   
   75 2     3      126   
   76 2     4      115   
   77 2     5      116   
   78 2     6      117   
   79 2     7      112   
   80 2     8      113   
   81 2     9      114   
   82 2     10     121   
   83 2     11     122   
   84 2     12     123   
   85 2     13     118   
   86 2     14     119   
   87 2     15     120   
   88 2     16     109   
   89 2     17     110   
   90 2     18     111   
   91 3     19     91    
   92 3     20     92    
   93 3     21     93    
   94 3     22     94    
   95 3     23     95    
   96 3     24     96    
   97 3     25     97    
   98 3     26     98    
   99 3     27     99    
  100 3     28     100   
  101 3     29     101   
  102 3     30     102   
  103 3     31     103   
  104 3     32     104   
  105 3     33     105   
  106 3     34     106   
  107 3     35     107   
  108 3     36     108   
  109 4     37     127   
  110 4     38     128   
  111 4     39     129   
  112 4     40     130   
  113 4     41     131   
  114 4     42     132   
  115 4     43     133   
  116 4     44     134   
  117 4     45     135   
  118 4     46     136   
  119 4     47     137   
  120 4     48     138   
  121 4     49     139   
  122 4     50     140   
  123 4     51     141   
  124 4     52     142   
  125 4     53     143   
  126 4     54     144   
  127 4     73     145   
  128 4     74     146   
  129 4     75     147   
  130 4     76     148   
  131 4     77     149   
  132 4     78     150   
  133 4     79     151   
  134 4     80     152   
  135 4     81     153   
  136 4     82     154   
  137 4     83     155   
  138 4     84     156   
  139 4     85     157   
  140 4     86     158   
  141 4     87     159   
  142 4     88     160   
  143 4     89     161   
  144 4     90     162   
  145 5     37     109   
  146 5     38     110   
  147 5     39     111   
  148 5     40     112   
  149 5     41     113   
  150 5     42     114   
  151 5     43     115   
  152 5     44     116   
  153 5     45     117   
  154 5     46     118   
  155 5     47     119   
  156 5     48     120   
  157 5     49     121   
  158 5     50     122   
  159 5     51     123   
  160 5     52     124   
  161 5     53     125   
  162 5     54     126   
  163 6     37     55    
  164 6     38     56    
  165 6     39     57    
  166 6     40     58    
  167 6     41     59    
  168 6     42     60    
  169 6     43     61    
  170 6     44     62    
  171 6     45     63    
  172 6     46     64    
  173 6     47     65    
  174 6     48     66    
  175 6     49     67    
  176 6     50     68    
  177 6     51     69    
  178 6     52     70    
  179 6     53     71    
  180 6     54     72    
  181 7     55     91    
  182 7     55     88    
  183 7     56     89    
  184 7     56     92    
  185 7     57     93    
  186 7     57     90    
  187 7     58     79    
  188 7     58     94    
  189 7     59     80    
  190 7     59     95    
  191 7     60     81    
  192 7     60     96    
  193 7     61     76    
  194 7     61     97    
  195 7     62     98    
  196 7     62     77    
  197 7     63     78    
  198 7     63     99    
  199 7     64     100   
  200 7     64     85    
  201 7     65     86    
  202 7     65     101   
  203 7     66     102   
  204 7     66     87    
  205 7     67     103   
  206 7     67     82    
  207 7     68     104   
  208 7     68     83    
  209 7     69     84    
  210 7     69     105   
  211 7     70     73    
  212 7     70     106   
  213 7     71     74    
  214 7     71     107   
  215 7     72     75    
  216 7     72     108   
  217 7     73     91    
  218 7     74     92    
  219 7     75     93    
  220 7     76     94    
  221 7     77     95    
  222 7     78     96    
  223 7     79     97    
  224 7     80     98    
  225 7     81     99    
  226 7     82     100   
  227 7     83     101   
  228 7     84     102   
  229 7     85     103   
  230 7     86     104   
  231 7     87     105   
  232 7     88     106   
  233 7     89     107   
  234 7     90     108   

Angles

    1 1     124    1      138   
    2 1     124    1      131   
    3 1     124    1      145   
    4 1     124    1      152   
    5 1     125    2      153   
    6 1     125    2      136   
    7 1     125    2      132   
    8 1     125    2      146   
    9 1     126    3      137   
   10 1     126    3      151   
   11 1     126    3      130   
   12 1     126    3      147   
   13 1     115    4      141   
   14 1     115    4      148   
   15 1     115    4      128   
   16 1     115    4      161   
   17 1     116    5      162   
   18 1     116    5      129   
   19 1     116    5      149   
   20 1     116    5      139   
   21 1     117    6      150   
   22 1     117    6      140   
   23 1     117    6      127   
   24 1     117    6      160   
   25 1     112    7      151   
   26 1     112    7      158   
   27 1     112    7      137   
   28 1     112    7      144   
   29 1     113    8      142   
   30 1     113    8      159   
   31 1     113    8      138   
   32 1     113    8      152   
   33 1     114    9      143   
   34 1     114    9      153   
   35 1     114    9      157   
   36 1     114    9      136   
   37 1     121    10     154   
   38 1     121    10     134   
   39 1     121    10     129   
   40 1     121    10     149   
   41 1     122    11     150   
   42 1     122    11     135   
   43 1     122    11     127   
   44 1     122    11     155   
   45 1     123    12     148   
   46 1     123    12     128   
   47 1     123    12     156   
   48 1     123    12     133   
   49 1     118    13     146   
   50 1     118    13     157   
   51 1     118    13     132   
   52 1     118    13     143   
   53 1     119    14     158   
   54 1     119    14     130   
   55 1     119    14     147   
   56 1     119    14     144   
   57 1     120    15     145   
   58 1     120    15     142   
   59 1     120    15     131   
   60 1     120    15     159   
   61 1     109    16     160   
   62 1     109    16     155   
   63 1     109    16     140   
   64 1     109    16     135   
   65 1     110    17     161   
   66 1     110    17     156   
   67 1     110    17     133   
   68 1     110    17     141   
   69 1     111    18     162   
   70 1     111    18     154   
   71 1     111    18     134   
   72 1     111    18     139   
   73 2     138    1      131   
   74 2     138    1      145   
   75 2     138    1      152   
   76 2     131    1      145   
   77 2     131    1      152   
   78 2     145    1      152   
   79 2     153    2      136   
   80 2     153    2      132   
   81 2     153    2      146   
   82 2     136    2      132   
   83 2     136    2      146   
   84 2     132    2      146   
   85 2     137    3      151   
   86 2     137    3      130   
   87 2     137    3      147   
   88 2     151    3      130   
   89 2     151    3      147   
   90 2     130    3      147   
   91 2     141    4      148   
   92 2     141    4      128   
   93 2     141    4      161   
   94 2     148    4      128   
   95 2     148    4      161   
   96 2     128    4      161   
   97 2     162    5      129   
   98 2     162    5      149   
   99 2     162    5      139   
  100 2     129    5      149   
  101 2     129    5      139   
  102 2     149    5      139   
  103 2     150    6      140   
  104 2     150    6      127   
  105 2     150    6      160   
  106 2     140    6      127   
  107 2     140    6      160   
  108 2     127    6      160   
  109 2     151    7      158   
  110 2     151    7      137   
  111 2     151    7      144   
  112 2     158    7      137   
  113 2     158    7      144   
  114 2     137    7      144   
  115 2     142    8      159   
  116 2     142    8      138   
  117 2     142    8      152   
  118 2     159    8      138   
  119 2     159    8      152   
  120 2     138    8      152   
  121 2     143    9      153   
  122 2     143    9      157   
  123 2     143    9      136   
  124 2     153    9      157   
  125 2     153    9      136   
  126 2     157    9      136   
  127 2     154    10     134   
  128 2     154    10     129   
  129 2     154    10     149   
  130 2     134    10     129   
  131 2     134    10     149   
  132 2     129    10     149   
  133 2     150    11     135   
  134 2     150    11     127   
  135 2     150    11     155   
  136 2     135    11     127   
  137 2     135    11     155   
  138 2     127    11     155   
  139 2     148    12     128   
  140 2     148    12     156   
  141 2     148    12     133   
  142 2     128    12     156   
  143 2     128    12     133   
  144 2     156    12     133   
  145 2     146    13     157   
  146 2     146    13     132   
  147 2     146    13     143   
  148 2     157    13     132   
  149 2     157    13     143   
  150 2     132    13     143   
  151 2     158    14     130   
  152 2     158    14     147   
  153 2     158    14     144   
  154 2     130    14     147   
  155 2     130    14     144   
  156 2     147    14     144   
  157 2     145    15     142   
  158 2     145    15     131   
  159 2     145    15     159   
  160 2     142    15     131   
  161 2     142    15     159   
  162 2     131    15     159   
  163 2     160    16     155   
  164 2     160    16     140   
  165 2     160    16     135   
  166 2     155    16     140   
  167 2     155    16     135   
  168 2     140    16     135   
  169 2     161    17     156   
  170 2     161    17     133   
  171 2     161    17     141   
  172 2     156    17     133   
  173 2     156    17     141   
  174 2     133    17     141   
  175 2     162    18     154   
  176 2     162    18     134   
  177 2     162    18     139   
  178 2     154    18     134   
  179 2     154    18     139   
  180 2     134    18     139   
  181 3     109    37     127   
  182 3     110    38     128   
  183 3     111    39     129   
  184 3     112    40     130   
  185 3     113    41     131   
  186 3     114    42     132   
  187 3     115    43     133   
  188 3     116    44     134   
  189 3     117    45     135   
  190 3     118    46     136   
  191 3     119    47     137   
  192 3     120    48     138   
  193 3     121    49     139   
  194 3     122    50     140   
  195 3     123    51     141   
  196 3     124    52     142   
  197 3     125    53     143   
  198 3     126    54     144   
  199 4     55     37     127   
  200 4     56     38     128   
  201 4     57     39     129   
  202 4     58     40     130   
  203 4     59     41     131   
  204 4     60     42     132   
  205 4     61     43     133   
  206 4     62     44     134   
  207 4     63     45     135   
  208 4     64     46     136   
  209 4     65     47     137   
  210 4     66     48     138   
  211 4     67     49     139   
  212 4     68     50     140   
  213 4     69     51     141   
  214 4     70     52     142   
  215 4     71     53     143   
  216 4     72     54     144   
  217 5     55     37     109   
  218 5     56     38     110   
  219 5     57     39     111   
  220 5     58     40     112   
  221 5     59     41     113   
  222 5     60     42     114   
  223 5     61     43     115   
  224 5     62     44     116   
  225 5     63     45     117   
  226 5     64     46     118   
  227 5     65     47     119   
  228 5     66     48     120   
  229 5     67     49     121   
  230 5     68     50     122   
  231 5     69     51     123   
  232 5     70     52     124   
  233 5     71     53     125   
  234 5     72     54     126   
  235 6     37     55     91    
  236 6     37     55     88    
  237 6     38     56     89    
  238 6     38     56     92    
  239 6     39     57     93    
  240 6     39     57     90    
  241 6     40     58     79    
  242 6     40     58     94    
  243 6     41     59     80    
  244 6     41     59     95    
  245 6     42     60     81    
  246 6     42     60     96    
  247 6     43     61     76    
  248 6     43     61     97    
  249 6     44     62     98    
  250 6     44     62     77    
  251 6     45     63     78    
  252 6     45     63     99    
  253 6     46     64     100   
  254 6     46     64     85    
  255 6     47     65     86    
  256 6     47     65     101   
  257 6     48     66     102   
  258 6     48     66     87    
  259 6     49     67     103   
  260 6     49     67     82    
  261 6     50     68     104   
  262 6     50     68     83    
  263 6     51     69     84    
  264 6     51     69     105   
  265 6     52     70     73    
  266 6     52     70     106   
  267 6     53     71     74    
  268 6     53     71     107   
  269 6     54     72     75    
  270 6     54     72     108   
  271 7     91     55     88    
  272 7     89     56     92    
  273 7     93     57     90    
  274 7     79     58     94    
  275 7     80     59     95    
  276 7     81     60     96    
  277 7     76     61     97    
  278 7     98     62     77    
  279 7     78     63     99    
  280 7     100    64     85    
  281 7     86     65     101   
  282 7     102    66     87    
  283 7     103    67     82    
  284 7     104    68     83    
  285 7     84     69     105   
  286 7     73     70     106   
  287 7     74     71     107   
  288 7     75     72     108   
  289 7     70     73     91    
  290 7     71     74     92    
  291 7     72     75     93    
  292 7     61     76     94    
  293 7     62     77     95    
  294 7     63     78     96    
  295 7     58     79     97    
  296 7     59     80     98    
  297 7     60     81     99    
  298 7     67     82     100   
  299 7     68     83     101   
  300 7     69     84     102   
  301 7     64     85     103   
  302 7     65     86     104   
  303 7     66     87     105   
  304 7     55     88     106   
  305 7     56     89     107   
  306 7     57     90     108   
  307 7     55     91     73    
  308 7     56     92     74    
  309 7     57     93     75    
  310 7     58     94     76    
  311 7     59     95     77    
  312 7     60     96     78    
  313 7     61     97     79    
  314 7     62     98     80    
  315 7     63     99     81    
  316 7     64     100    82    
  317 7     65     101    83    
  318 7     66     102    84    